ITEM: TIMESTEP
1000
ITEM: NUMBER OF ATOMS
16384
ITEM: BOX BOUNDS pp pp pp
-1.7006855707231768e+01 1.7006855707231768e+01
-1.7006855707231768e+01 1.7006855707231768e+01
-1.7006855707231768e+01 1.7006855707231768e+01
ITEM: ATOMS id type x y z xu yu zu
11628 1 -14.9893 -15.2352 -16.066 19.0244 -15.2352 17.9477
2153 1 -11.5666 -15.9345 -16.899 -11.5666 -15.9345 17.1148
8923 1 -13.182 -16.3722 -15.7858 -13.182 -16.3722 -15.7858
8665 1 -16.6665 -6.03303 -1.00519 17.3472 -40.0467 -1.00519
4438 1 -11.2387 -16.7532 -16.1666 -11.2387 17.2605 -16.1666
9894 1 -7.09794 -16.0529 -8.16505 -7.09794 -16.0529 -8.16505
4519 1 -8.00105 -16.2454 -16.4519 -8.00105 17.7683 -16.4519
7718 1 -6.59779 -16.0578 -16.3996 -6.59779 17.9559 17.6141
11359 1 -4.29281 -16.1269 -16.1836 -4.29281 -16.1269 17.8301
1461 1 -3.99093 -16.5409 -15.2939 -3.99093 -16.5409 -15.2939
1661 1 -1.37916 -16.1774 -16.1226 -1.37916 -16.1774 -16.1226
5713 1 -0.205582 -7.86546 -6.23359 -0.205582 26.1483 -6.23359
16266 1 -14.7296 -14.1771 -14.8236 19.2841 19.8366 -14.8236
6866 1 -14.0349 -15.2539 -15.6676 -14.0349 18.7598 18.3461
2939 1 -13.7822 -14.8256 -16.7642 -13.7822 -14.8256 17.2495
13995 1 -12.2828 -14.7958 -16.4023 -12.2828 19.2179 -16.4023
4814 1 -13.2153 -14.145 -15.3882 -13.2153 19.8687 -15.3882
9994 1 -10.6078 -15.6609 -16.1247 23.4059 -15.6609 -16.1247
12208 1 -10.1271 -13.7502 -16.3448 23.8866 -13.7502 17.6689
2162 1 -8.49991 -14.9876 -16.5019 -8.49991 -14.9876 17.5119
3010 1 -7.41949 -15.0316 -15.6672 -7.41949 -15.0316 18.3466
12118 1 -6.51181 -14.5609 -16.5753 -6.51181 -14.5609 -16.5753
7864 1 -5.54122 -15.1871 -16.0666 -5.54122 18.8266 17.9471
910 1 -3.94079 -14.3984 -16.6278 -3.94079 -14.3984 -16.6278
8838 1 -3.42569 -14.7513 -14.8865 -3.42569 -14.7513 -14.8865
15863 1 -2.63047 -14.884 -15.6294 -2.63047 19.1297 18.3844
736 1 -15.924 -12.4541 -15.4376 -15.924 -12.4541 -15.4376
8742 1 -3.35715 -0.246709 -2.3217 -3.35715 -0.246709 -2.3217
10387 1 -14.7211 -14.1447 -16.1382 19.2926 -14.1447 17.8755
11940 1 -14.6398 -12.4406 -16.4311 19.3739 -12.4406 17.5826
2933 1 -12.1453 -13.5884 -15.8419 -12.1453 -13.5884 18.1718
2027 1 -0.480935 -3.37028 -10.883 -0.480935 -3.37028 -10.883
5478 1 -9.63118 -12.6364 -16.5865 -9.63118 21.3774 -16.5865
312 1 -7.35274 -13.8537 -16.1792 -7.35274 -13.8537 17.8345
13970 1 -5.58298 -13.7864 -15.7348 -5.58298 -13.7864 -15.7348
13343 1 -4.98699 -12.7028 -15.4961 -4.98699 21.3109 -15.4961
618 1 -3.73204 -13.7471 -14.97 -3.73204 -13.7471 -14.97
7564 1 -1.49315 -14.0584 -15.3447 -1.49315 19.9553 18.669
10752 1 -3.06488 -13.0831 -16.4029 -3.06488 -13.0831 17.6108
866 1 -12.9802 -16.9041 -12.1864 -12.9802 -16.9041 -12.1864
6037 1 -5.42122 -16.9546 -3.85318 -5.42122 17.0591 -3.85318
10534 1 -15.5442 -16.6801 -16.7569 18.4695 -16.6801 17.2568
2794 1 -15.421 -11.1875 -15.558 -15.421 -11.1875 18.4557
3471 1 -12.9056 -12.6872 -15.1974 -12.9056 -12.6872 18.8163
8635 1 -13.1241 -12.0777 -16.2007 20.8896 -12.0777 -16.2007
1306 1 -11.6513 -11.3329 -16.7057 -11.6513 -11.3329 -16.7057
6272 1 -11.063 -12.6966 -15.9227 -11.063 21.3171 18.091
967 1 -15.3368 -16.5022 -2.69787 -15.3368 -16.5022 -2.69787
3604 1 -7.57935 -12.078 -15.6699 -7.57935 -12.078 18.3438
9592 1 -6.82085 -11.3869 -16.1743 -6.82085 -11.3869 -16.1743
10664 1 -5.25301 -12.629 -16.9775 28.7607 -12.629 17.0363
11401 1 -3.70181 -12.0267 -16.2279 -3.70181 -12.0267 17.7858
8542 1 -1.734 -11.858 -15.4707 -1.734 -11.858 -15.4707
6605 1 -4.27547 -1.41488 -16.4517 -4.27547 -1.41488 17.562
9359 1 -15.623 -11.5201 -16.9372 18.3907 -11.5201 -16.9372
10276 1 -15.8305 -10.0282 -16.0078 18.1832 -10.0282 -16.0078
508 1 -16.3435 -9.19788 -14.6706 -16.3435 -9.19788 19.3431
8351 1 -11.1351 -0.499035 -5.83433 22.8786 -34.5127 -5.83433
5608 1 -6.1447 -16.6164 -10.3695 -6.1447 17.3973 -10.3695
1278 1 -11.7187 -9.90578 -16.1507 -11.7187 -9.90578 -16.1507
8974 1 -2.1273 -0.160599 -4.81712 -2.1273 -0.160599 -4.81712
4023 1 -8.76466 -10.4899 -16.1726 -8.76466 -10.4899 17.8411
2163 1 -8.75184 -9.90972 -14.7119 -8.75184 -9.90972 19.3018
15352 1 -7.7471 -10.3079 -16.4699 26.2666 -10.3079 17.5438
271 1 -5.79066 -11.2662 -16.1391 -5.79066 -11.2662 -16.1391
13228 1 -0.0998503 -13.3577 -12.9547 -0.0998503 20.6561 -12.9547
10788 1 -2.84586 -11.5648 -16.9008 31.1679 -11.5648 17.1129
10844 1 -0.160229 -12.0694 -15.6836 -0.160229 -12.0694 18.3301
2882 1 -1.69226 -11.4375 -16.9208 -1.69226 -11.4375 17.0929
10119 1 -0.0218254 -5.07676 -16.6765 -0.0218254 -5.07676 -16.6765
11143 1 -15.5145 -9.08462 -16.8088 18.4992 -9.08462 17.2049
72 1 -5.99964 -16.4143 -5.72055 -5.99964 -16.4143 -5.72055
7013 1 -12.1433 -8.81006 -16.5622 -12.1433 25.2037 17.4515
8774 1 -10.3335 -10.0483 -16.7723 -10.3335 -10.0483 -16.7723
12072 1 -10.4186 -9.95181 -15.3684 23.5951 -9.95181 18.6453
2449 1 -8.85126 -9.45335 -16.0149 -8.85126 -9.45335 17.9988
3547 1 -7.14456 -8.91763 -16.7658 -7.14456 -8.91763 17.2479
3816 1 -5.08799 -9.7315 -15.9894 -5.08799 -9.7315 18.0243
1853 1 -5.97327 -8.31953 -16.7903 -5.97327 -8.31953 -16.7903
2393 1 -3.91716 -8.22755 -16.4859 -3.91716 -8.22755 -16.4859
10615 1 -3.35362 -9.46264 -16.6525 -3.35362 -9.46264 17.3612
3286 1 -4.28141 -1.41712 -12.7622 -4.28141 -1.41712 -12.7622
8581 1 -0.839433 -9.52984 -16.9038 -0.839433 -9.52984 -16.9038
10378 1 -16.8243 -14.4296 -16.9399 17.1895 -14.4296 17.0738
360 1 -4.85859 -11.6366 -0.414182 -4.85859 -11.6366 -0.414182
13939 1 -11.8416 -16.9833 -0.736573 22.1721 17.0304 -0.736573
10171 1 -1.85316 -16.5977 -5.73643 -1.85316 -16.5977 -5.73643
1070 1 -12.1678 -7.45856 -16.1603 -12.1678 -7.45856 -16.1603
1474 1 -4.44706 -0.0328827 -14.1395 -4.44706 -0.0328827 -14.1395
12874 1 -0.161092 -15.7291 -2.5967 -0.161092 18.2846 -2.5967
12672 1 -9.61359 -7.30984 -15.2646 24.4001 -7.30984 -15.2646
4328 1 -5.97131 -6.23972 -16.9381 -5.97131 -6.23972 -16.9381
12459 1 -6.75398 -7.05286 -15.9064 -6.75398 26.9609 -15.9064
1321 1 -5.17141 -7.92692 -15.9464 -5.17141 -7.92692 -15.9464
9916 1 -3.44171 -7.09174 -16.3426 -3.44171 -7.09174 -16.3426
3995 1 -2.68496 -8.26662 -16.5638 -2.68496 -8.26662 17.4499
1612 1 -1.47709 -7.28881 -16.2956 -1.47709 -7.28881 -16.2956
3261 1 -8.92027 -9.22281 -0.15298 -8.92027 -9.22281 -0.15298
1600 1 -12.4159 -6.72253 -0.534545 -12.4159 -6.72253 -0.534545
898 1 -15.7343 -6.74221 -15.9834 -15.7343 -6.74221 -15.9834
10912 1 -12.7278 -6.32638 -16.5819 21.2859 -6.32638 17.4318
367 1 -10.7179 -6.34102 -16.8604 -10.7179 -6.34102 -16.8604
704 1 -11.3574 -6.3475 -15.706 -11.3574 -6.3475 -15.706
3915 1 -16.8928 -14.6621 -5.36835 -16.8928 -14.6621 -5.36835
13232 1 -10.2122 -4.66585 -16.7314 23.8015 -4.66585 -16.7314
3592 1 -11.0321 -8.02235 -16.3961 -11.0321 -8.02235 17.6176
4971 1 -16.4318 -0.926 -9.24703 -16.4318 -0.926 -9.24703
9281 1 -8.90148 -6.11362 -16.3832 25.1122 -6.11362 -16.3832
461 1 -5.26459 -6.36751 -15.5837 -5.26459 -6.36751 -15.5837
1106 1 -6.73898 -16.5601 -4.73989 -6.73898 -16.5601 -4.73989
7878 1 -3.9956 -5.85682 -15.7244 -3.9956 28.1569 18.2893
7029 1 -2.26405 -6.39442 -15.8157 -2.26405 27.6193 18.198
5089 1 -2.15743 -5.23645 -16.6632 -2.15743 -5.23645 -16.6632
865 1 -16.0488 -3.92778 -15.1487 -16.0488 -3.92778 -15.1487
1862 1 -15.0883 -5.58037 -16.5399 -15.0883 -5.58037 -16.5399
9149 1 -16.3727 -0.498316 -12.6434 17.641 -0.498316 -12.6434
2906 1 -12.863 -5.16137 -16.841 -12.863 -5.16137 17.1727
8355 1 -1.50342 -1.07711 -11.1602 -1.50342 -1.07711 -11.1602
14117 1 -11.716 -5.2476 -15.9343 -11.716 -5.2476 -15.9343
13514 1 -8.83821 -4.80233 -15.9754 -8.83821 -4.80233 -15.9754
7782 1 -9.7965 -4.01152 -15.3093 -9.7965 -4.01152 18.7044
5974 1 -7.71388 -4.562 -16.7327 -7.71388 -4.562 -16.7327
12771 1 -7.6388 -4.85783 -15.3895 -7.6388 29.1559 -15.3895
1357 1 -8.05592 -16.8278 -2.59984 -8.05592 -16.8278 -2.59984
14719 1 -3.20186 -11.7848 -0.285999 30.8119 22.2289 33.7277
6519 1 -0.965982 -4.45387 -16.2603 -0.965982 -4.45387 17.7534
7149 1 -4.65175 -4.3555 -16.5987 -4.65175 -4.3555 17.415
9410 1 -16.1944 -2.69617 -16.529 17.8193 -2.69617 -16.529
2288 1 -14.9096 -3.98085 -16.0957 -14.9096 -3.98085 17.9181
15571 1 -15.4009 -3.08754 -15.6173 18.6128 -3.08754 18.3964
2832 1 -14.8562 -5.05307 -14.8397 -14.8562 -5.05307 19.174
6725 1 -14.0524 -3.14882 -16.4292 -14.0524 -3.14882 17.5845
11830 1 -12.1651 -3.96935 -15.9313 21.8487 -3.96935 18.0824
3574 1 -11.3272 -3.40641 -15.9024 -11.3272 -3.40641 18.1113
13098 1 -14.437 -0.133079 -13.9179 19.5767 -0.133079 -13.9179
3839 1 -3.63909 -3.724 -16.8056 -3.63909 -3.724 17.2081
2560 1 -5.8967 -3.18578 -16.7995 -5.8967 -3.18578 17.2142
3813 1 -1.06402 -3.41134 -16.7225 -1.06402 -3.41134 17.2912
10407 1 -2.50171 -4.01494 -15.4958 -2.50171 -4.01494 -15.4958
15028 1 -16.8523 -0.107272 -1.35234 17.1614 -0.107272 -1.35234
2366 1 -13.6396 -1.42198 -16.4142 -13.6396 -1.42198 17.5995
1769 1 -12.3871 -1.06936 -16.3691 -12.3871 -1.06936 -16.3691
5352 1 -11.0092 -2.18742 -15.6054 -11.0092 -2.18742 -15.6054
9624 1 -10.0021 -2.67147 -15.761 24.0117 -2.67147 -15.761
5131 1 -10.4184 -0.765676 -16.3737 -10.4184 -0.765676 -16.3737
6925 1 -8.49759 -1.86032 -15.5862 -8.49759 32.1534 18.4275
1279 1 -8.28267 -2.66921 -16.8163 -8.28267 -2.66921 -16.8163
6199 1 -6.20272 -0.280678 -11.1276 -6.20272 -0.280678 -11.1276
12301 1 -6.8416 -3.22467 -15.7219 -6.8416 -3.22467 18.2918
7492 1 -5.11959 -2.22559 -15.9858 -5.11959 -2.22559 18.0279
6710 1 -7.56825 -0.365195 -2.04281 -7.56825 -0.365195 -2.04281
3835 1 -3.5585 -1.2541 -15.5769 -3.5585 -1.2541 18.4368
476 1 -2.56592 -2.82582 -15.8355 -2.56592 -2.82582 -15.8355
7710 1 -0.516785 -1.94997 -15.1226 -0.516785 -1.94997 18.8911
14886 1 -17.0058 -0.555902 -15.756 17.0079 -0.555902 18.2577
233 1 -14.9077 -2.13414 -16.4432 -14.9077 -2.13414 -16.4432
2701 1 -15.2159 -0.828881 -16.0312 -15.2159 -0.828881 17.9825
12283 1 -0.683521 -7.94928 -12.086 -0.683521 -7.94928 21.9277
11317 1 -11.3093 -0.0278595 -15.8921 22.7044 -0.0278595 18.1216
15460 1 -4.85249 -16.6658 -12.3165 29.1612 17.348 21.6973
2250 1 -9.09086 -1.02856 -16.6241 -9.09086 -1.02856 17.3896
13268 1 -8.37733 -0.18719 -16.347 -8.37733 -0.18719 -16.347
10781 1 -5.53297 -0.810984 -16.8181 -5.53297 -0.810984 17.1956
4263 1 -5.97966 -1.46709 -15.0046 -5.97966 -1.46709 -15.0046
1472 1 -1.15199 -0.561007 -16.0932 -1.15199 -0.561007 -16.0932
15042 1 -12.9976 -2.52731 -16.3961 21.0161 -2.52731 17.6176
7981 1 -14.8562 -16.3293 -14.9701 -14.8562 17.6844 19.0436
4896 1 -0.10079 -13.3827 -1.82711 -0.10079 20.631 -1.82711
13193 1 -11.0105 -16.4223 -15.0303 23.0032 17.5915 -15.0303
15997 1 -9.77872 -16.4842 -15.1064 -9.77872 17.5296 18.9073
5237 1 -7.89528 -15.8588 -15.3117 -7.89528 18.1549 18.702
13582 1 -16.4363 -0.561893 -4.67248 17.5774 -0.561893 -4.67248
4914 1 -5.11234 -16.0594 -15.3666 -5.11234 17.9543 -15.3666
13772 1 -0.856264 -9.72265 -8.72996 -0.856264 24.2911 -8.72996
13151 1 -3.07208 -16.0111 -14.284 -3.07208 18.0026 -14.284
15558 1 -2.57068 -16.3912 -15.8512 -2.57068 17.6225 18.1625
10084 1 -1.5012 -16.1791 -14.689 -1.5012 -16.1791 -14.689
15673 1 -0.210923 -16.1853 -15.4337 -0.210923 17.8284 18.58
5989 1 -16.0832 -15.074 -15.0749 -16.0832 18.9398 -15.0749
2114 1 -16.0409 -13.7942 -15.0239 -16.0409 -13.7942 18.9898
1625 1 -13.8621 -15.8072 -14.675 -13.8621 -15.8072 -14.675
6463 1 -12.927 -14.9913 -14.2211 -12.927 19.0224 19.7926
14994 1 -11.0875 -14.7665 -15.3038 22.9262 19.2472 18.7099
3967 1 -12.1675 -14.0598 -14.1805 -12.1675 -14.0598 19.8332
7734 1 -10.8579 -13.5684 -15.2243 -10.8579 20.4453 18.7894
7613 1 -9.2892 -15.5098 -15.5288 -9.2892 18.5039 18.4849
1193 1 -10.4563 -15.6748 -14.0553 -10.4563 -15.6748 -14.0553
10048 1 -6.87994 -14.6139 -14.7514 -6.87994 -14.6139 -14.7514
15998 1 -6.89049 -15.8006 -14.9752 -6.89049 -15.8006 19.0385
1339 1 -4.68342 -15.1768 -14.885 -4.68342 -15.1768 -14.885
11513 1 -3.8952 -15.0662 -13.6174 -3.8952 -15.0662 20.3963
9996 1 -0.5158 -14.6829 -14.7972 33.4979 -14.6829 -14.7972
11856 1 -11.0683 -12.3179 -0.0286033 22.9454 -12.3179 -0.0286033
7695 1 -16.2892 -12.9335 -13.4869 -16.2892 21.0802 20.5268
8847 1 -14.7397 -13.1245 -15.3784 19.274 -13.1245 -15.3784
1414 1 -13.6896 -13.2388 -16.228 -13.6896 -13.2388 -16.228
1514 1 -13.1303 -13.1835 -13.9296 -13.1303 -13.1835 -13.9296
12886 1 -10.2879 -12.476 -13.5246 -10.2879 21.5377 -13.5246
4829 1 -9.4784 -14.0005 -15.0678 -9.4784 20.0132 -15.0678
3899 1 -8.92435 -13.5423 -15.8878 -8.92435 -13.5423 18.126
5482 1 -8.23875 -15.0348 -14.7933 -8.23875 18.9789 -14.7933
14809 1 -7.5019 -12.6156 -14.5827 -7.5019 -12.6156 -14.5827
15533 1 -6.07668 -13.151 -14.9153 -6.07668 -13.151 -14.9153
11234 1 -4.69978 -14.2232 -14.5705 -4.69978 -14.2232 19.4432
2128 1 -2.87438 -12.7667 -14.0932 -2.87438 -12.7667 19.9205
5486 1 -2.17176 -13.0219 -15.172 -2.17176 20.9918 -15.172
10478 1 -0.319325 -13.0948 -16.1614 -0.319325 -13.0948 17.8523
14050 1 -15.0934 -11.7327 -13.9603 18.9203 22.281 20.0534
4146 1 -14.0749 -12.206 -15.2978 -14.0749 21.8077 -15.2978
921 1 -14.1838 -10.9177 -14.6313 -14.1838 -10.9177 -14.6313
10243 1 -13.3764 -11.4925 -14.275 -13.3764 -11.4925 -14.275
11950 1 -11.3343 -12.5558 -14.4861 22.6794 -12.5558 19.5276
8960 1 -9.87198 -12.5637 -14.8764 24.1417 -12.5637 -14.8764
13199 1 -10.9898 -11.2608 -15.7279 -10.9898 22.7529 -15.7279
3531 1 -9.78896 -11.7249 -16.1785 -9.78896 -11.7249 17.8352
602 1 -6.85554 -11.127 -14.8893 -6.85554 -11.127 -14.8893
1795 1 -6.59785 -12.9552 -16.3161 -6.59785 -12.9552 -16.3161
3460 1 -6.29619 -12.1721 -15.2219 -6.29619 -12.1721 -15.2219
4030 1 -4.42025 -12.0063 -13.8779 -4.42025 -12.0063 20.1358
839 1 -5.05329 -12.9417 -14.1584 -5.05329 -12.9417 -14.1584
2010 1 -0.586026 -12.7 -14.4307 -0.586026 -12.7 19.583
3884 1 -3.2519 -11.8151 -15.2289 -3.2519 -11.8151 18.7848
4937 1 -12.1676 -16.8487 -7.41732 -12.1676 17.165 -7.41732
1348 1 -15.3605 -9.11811 -15.4046 -15.3605 -9.11811 -15.4046
2569 1 -14.1733 -10.8014 -15.896 -14.1733 -10.8014 18.1177
2868 1 -12.9444 -10.8917 -15.604 -12.9444 -10.8917 18.4097
6731 1 -11.7219 -10.149 -14.97 -11.7219 23.8648 19.0437
13170 1 -9.23409 -11.3565 -14.459 -9.23409 22.6572 -14.459
5116 1 -7.60133 -9.2517 -15.1291 -7.60133 -9.2517 -15.1291
3906 1 -6.54903 -10.1325 -15.4814 -6.54903 -10.1325 18.5323
4665 1 -4.90335 -10.6795 -14.8482 -4.90335 23.3342 -14.8482
11063 1 -3.88072 -10.526 -15.9759 -3.88072 -10.526 18.0378
9355 1 -2.05787 -10.5928 -15.8715 -2.05787 -10.5928 18.1422
6318 1 -2.31652 -10.6193 -14.8376 -2.31652 -10.6193 19.1761
6129 1 -6.05758 -10.0135 -16.7785 -6.05758 -10.0135 17.2352
4310 1 -16.0767 -7.82739 -14.9284 -16.0767 26.1863 -14.9284
5723 1 -13.4832 -9.72316 -14.8304 -13.4832 24.2906 -14.8304
8583 1 -13.6423 -8.60132 -14.8932 -13.6423 -8.60132 -14.8932
8965 1 -12.1307 -8.56011 -15.1001 21.883 -8.56011 -15.1001
8072 1 -10.1055 -8.4331 -14.7746 -10.1055 25.5806 19.2391
14101 1 -9.73569 -9.76517 -13.9558 -9.73569 24.2485 -13.9558
13515 1 -6.32174 -8.6607 -15.6113 27.692 -8.6607 -15.6113
3125 1 -4.76723 -8.96324 -14.4431 -4.76723 -8.96324 19.5706
4474 1 -2.40409 -9.42085 -15.6058 -2.40409 24.5929 -15.6058
10790 1 -3.18922 -9.27514 -13.7756 -3.18922 -9.27514 20.2381
9990 1 -2.08447 -9.16487 -14.0749 -2.08447 -9.16487 -14.0749
1955 1 -14.1716 -7.2841 -16.6098 -14.1716 -7.2841 -16.6098
12128 1 -14.8839 -7.83115 -15.2255 -14.8839 -7.83115 -15.2255
8388 1 -13.8957 -7.18243 -15.4386 -13.8957 -7.18243 -15.4386
15695 1 -14.0131 -8.31624 -13.6032 20.0006 25.6975 20.4105
9509 1 -13.1706 -7.80215 -16.4528 -13.1706 -7.80215 -16.4528
6218 1 -10.6656 -9.25035 -16.2684 -10.6656 24.7634 17.7453
8841 1 -12.7103 -8.02011 -14.027 21.3034 -8.02011 -14.027
1145 1 -11.3787 -7.26788 -13.8151 -11.3787 -7.26788 -13.8151
9539 1 -7.86642 -8.3465 -15.5709 -7.86642 -8.3465 -15.5709
10702 1 -7.60568 -9.14365 -13.9081 -7.60568 -9.14365 20.1056
1593 1 -6.49845 -6.62346 -14.4426 -6.49845 -6.62346 -14.4426
15403 1 -5.84006 -8.14131 -14.3572 -5.84006 -8.14131 19.6565
1831 1 -2.9799 -8.27482 -15.3777 -2.9799 -8.27482 -15.3777
320 1 -3.89116 -7.2383 -14.9036 -3.89116 -7.2383 -14.9036
350 1 -2.01652 -7.63377 -14.8533 -2.01652 -7.63377 -14.8533
3355 1 -1.26948 -8.98915 -15.5189 -1.26948 -8.98915 18.4948
11824 1 -15.1228 -6.4233 -14.5878 18.8909 -6.4233 19.4259
9267 1 -14.6988 -6.1944 -15.6099 19.3149 -6.1944 -15.6099
13964 1 -13.1609 -6.09599 -13.5791 -13.1609 -6.09599 -13.5791
8777 1 -12.3484 -6.8596 -14.3157 -12.3484 -6.8596 19.698
8225 1 -9.85848 -6.15472 -14.7202 -9.85848 -6.15472 -14.7202
15587 1 -10.9107 -7.44199 -15.2288 23.103 -7.44199 18.7849
13013 1 -8.00775 -6.5772 -15.4844 -8.00775 27.4365 -15.4844
2169 1 -6.2607 -5.06797 -16.1872 -6.2607 -5.06797 17.8265
150 1 -6.89586 -8.24915 -14.1034 -6.89586 -8.24915 -14.1034
5203 1 -5.3413 -6.81886 -14.2608 -39.355 -6.81886 -14.2608
8968 1 -2.89529 -6.10415 -14.5871 -2.89529 -6.10415 -14.5871
1666 1 -3.27057 -4.97049 -15.8767 -3.27057 -4.97049 -15.8767
16127 1 -0.854612 -6.09384 -14.9832 -0.854612 -6.09384 19.0305
13146 1 -15.8269 -4.96283 -15.8222 18.1869 -4.96283 -15.8222
16163 1 -15.8573 -5.18707 -14.1328 18.1564 -5.18707 19.8809
5727 1 -12.8953 -6.18525 -15.1682 -12.8953 -6.18525 -15.1682
12124 1 -11.1249 -5.87736 -14.6544 -11.1249 -5.87736 -14.6544
10453 1 -9.76949 -5.88267 -15.8278 24.2442 -5.88267 18.1859
9544 1 -8.64462 -4.55017 -14.6653 -8.64462 -4.55017 -14.6653
10875 1 -6.18369 -4.14715 -15.1833 27.83 -4.14715 18.8305
3977 1 -4.92669 -5.00731 -15.8352 -4.92669 -5.00731 18.1786
762 1 -5.12499 -3.6398 -14.4055 -5.12499 -3.6398 -14.4055
11257 1 -2.6985 -4.93897 -14.8058 -2.6985 -4.93897 19.2079
1606 1 -1.71287 -5.29383 -13.8538 -1.71287 -5.29383 -13.8538
2242 1 -1.26298 -4.68819 -15.1322 -1.26298 -4.68819 18.8815
5891 1 -14.7753 -3.58531 -14.4323 -14.7753 -3.58531 -14.4323
5221 1 -13.2255 -4.57869 -15.6365 -13.2255 29.435 18.3772
224 1 -12.1088 -3.86128 -14.0636 -12.1088 -3.86128 -14.0636
4849 1 -11.3925 -4.54767 -14.8287 -11.3925 29.466 19.1851
622 1 -10.0502 -4.8712 -14.4994 -10.0502 -4.8712 -14.4994
11751 1 -8.96241 -3.24245 -14.6096 25.0513 -3.24245 19.4041
3805 1 -8.01742 -3.53247 -15.4948 -8.01742 -3.53247 18.5189
3147 1 -7.17715 -3.39352 -14.2107 -7.17715 -3.39352 19.803
7842 1 -4.75991 -16.8453 -1.44876 -4.75991 17.1684 -1.44876
11231 1 -4.03629 -3.99328 -15.2643 -4.03629 -3.99328 18.7494
1741 1 -3.66891 -3.84813 -14.1667 -3.66891 -37.8618 -14.1667
2026 1 -4.04452 -2.50732 -15.5638 -4.04452 -36.521 -15.5638
5317 1 -2.73169 -3.09032 -14.2242 -2.73169 -3.09032 -14.2242
9082 1 -1.78687 -3.3322 -14.9722 -1.78687 -3.3322 -14.9722
554 1 -16.5293 -2.0093 -13.2761 -16.5293 -2.0093 -13.2761
15392 1 -15.4938 -1.70591 -15.4683 18.5199 -1.70591 18.5455
5076 1 -13.9636 -3.14402 -15.075 -13.9636 30.8697 -15.075
9365 1 -14.4181 -1.85809 -15.3896 -14.4181 -1.85809 -15.3896
10268 1 -12.5984 -2.58148 -15.4285 21.4153 -2.58148 -15.4285
8736 1 -12.4592 -1.96377 -14.3033 21.5545 -1.96377 -14.3033
7698 1 -10.89 -3.4498 -14.4296 -10.89 -3.4498 19.5842
5665 1 -9.7657 -1.22988 -15.6862 -9.7657 -1.22988 -15.6862
1878 1 -7.9263 -2.62747 -14.6401 -7.9263 -2.62747 -14.6401
9593 1 -8.49237 -3.95892 -13.4092 25.5213 -3.95892 -13.4092
14727 1 -6.95231 -1.31231 -13.6528 -6.95231 -1.31231 -13.6528
15391 1 -5.45282 -1.10579 -14.0339 -5.45282 -1.10579 19.9798
1788 1 -5.14763 -2.91292 -15.1951 -5.14763 -36.9266 -15.1951
15523 1 -3.06853 -2.08317 -14.62 -3.06853 -2.08317 19.3938
2003 1 -1.72697 -2.05307 -13.502 -35.7407 -2.05307 -13.502
9079 1 -15.3814 -0.736418 -13.809 18.6324 -0.736418 -13.809
16277 1 -16.6119 -9.20076 -2.22955 17.4018 24.813 -2.22955
2291 1 -12.4539 -1.30486 -15.2841 -12.4539 -1.30486 18.7296
14073 1 -11.1825 -1.63949 -14.7259 -11.1825 -1.63949 -14.7259
5678 1 -10.1698 -0.143941 -15.1549 -10.1698 -0.143941 -15.1549
5087 1 -8.19246 -0.757852 -15.4362 -8.19246 -0.757852 -15.4362
10506 1 -8.59433 -1.68923 -14.2484 25.4194 -1.68923 19.7653
8063 1 -6.49644 -0.214436 -14.3682 -6.49644 -0.214436 19.6455
8871 1 -6.99794 -2.04141 -15.1505 27.0158 -2.04141 -15.1505
13560 1 -2.83272 -0.36382 -14.4457 -2.83272 -0.36382 -14.4457
13096 1 -4.97477 -0.618471 -15.2337 -4.97477 -0.618471 -15.2337
12769 1 -1.80393 -1.4707 -15.0836 -1.80393 -1.4707 -15.0836
10686 1 -0.0506405 -0.877992 -5.17808 -0.0506405 -0.877992 -5.17808
8192 1 -16.2529 -15.7151 -13.9861 -16.2529 18.2986 20.0276
1739 1 -15.2988 -14.9208 -13.8502 -15.2988 -14.9208 -13.8502
295 1 -15.3043 -16.5624 -13.3101 -15.3043 -16.5624 -13.3101
13954 1 -16.8163 -7.2909 -6.09811 17.1974 -7.2909 -6.09811
11853 1 -14.097 -15.5565 -13.1167 19.9167 -15.5565 20.897
12377 1 -12.276 -16.3272 -14.63 21.7377 17.6865 -14.63
7751 1 -11.6443 -15.3906 -13.5516 -11.6443 18.6231 20.4621
12332 1 -12.4419 -16.6167 -13.4083 21.5718 -16.6167 20.6054
4729 1 -11.1351 -16.4556 -13.3048 -11.1351 17.5581 -13.3048
7688 1 -10.0891 -15.3763 -12.3492 -10.0891 -15.3763 21.6645
5350 1 -0.0528575 -4.64681 -5.80648 -0.0528575 -4.64681 -5.80648
273 1 -8.59343 -15.6675 -12.6967 -8.59343 -15.6675 -12.6967
1970 1 -6.1532 -16.4748 -14.3087 -6.1532 -16.4748 -14.3087
1935 1 -7.75789 -16.8018 -13.8147 -7.75789 -16.8018 -13.8147
1584 1 -16.8761 -11.5799 -11.0576 17.1376 -11.5799 -11.0576
3698 1 -12.5059 -0.29992 -2.49437 -12.5059 -0.29992 -2.49437
11512 1 -1.31763 -15.3447 -13.7053 -1.31763 -15.3447 20.3084
730 1 -16.9891 -14.0755 -14.0167 -16.9891 -14.0755 -14.0167
14619 1 -13.8008 -14.3481 -13.9979 20.2129 19.6656 -13.9979
11463 1 -13.0346 -14.5297 -12.4327 20.9791 -14.5297 21.581
6711 1 -11.0196 -13.9905 -13.8357 -11.0196 20.0232 20.178
12340 1 -9.34751 -15.2411 -13.7847 -9.34751 -15.2411 20.229
1997 1 -8.71281 -16.2864 -14.0021 -8.71281 -16.2864 -14.0021
2298 1 -7.04028 -15.1702 -13.4921 -7.04028 -15.1702 20.5216
4926 1 -5.78305 -15.0645 -13.9099 -5.78305 18.9492 -13.9099
856 1 -4.57817 -14.8537 -12.7178 -38.5919 -14.8537 -12.7178
8445 1 -0.390919 -15.2681 -12.9929 -0.390919 -15.2681 -12.9929
2910 1 -14.59 -14.4908 -13.0963 -14.59 -14.4908 20.9174
6189 1 -13.7237 -13.1511 -12.697 -13.7237 20.8626 -12.697
8535 1 -12.0367 -13.5884 -12.7944 -12.0367 -13.5884 -12.7944
416 1 -11.3324 -14.1448 -12.0235 -11.3324 -14.1448 -12.0235
1663 1 -11.2526 -12.6631 -13.1984 -11.2526 -12.6631 -13.1984
12455 1 -11.3546 -12.8538 -12.1099 -11.3546 21.1599 -12.1099
352 1 -8.9597 -11.8395 -13.5813 -8.9597 -11.8395 -13.5813
4321 1 -8.89909 -13.3027 -13.8332 -8.89909 -13.3027 -13.8332
9102 1 -7.37874 -13.9346 -13.6411 -7.37874 -13.9346 -13.6411
1798 1 -6.92134 -12.9142 -13.0951 -6.92134 -12.9142 -13.0951
7289 1 -5.66739 -12.3089 -12.7208 -5.66739 21.7048 21.293
5518 1 -5.2432 -13.7091 -13.2944 -5.2432 20.3046 -13.2944
5291 1 -3.73077 -13.6953 -13.2095 -3.73077 20.3184 -13.2095
6016 1 -2.54026 -14.8791 -13.8047 -2.54026 -14.8791 -13.8047
5612 1 -1.9093 -13.6295 -13.8149 -1.9093 20.3842 -13.8149
10628 1 -0.413889 -14.1114 -13.8366 -0.413889 -14.1114 20.1771
3103 1 -16.4746 -11.4747 -13.5009 -16.4746 -11.4747 20.5128
15942 1 -14.7087 -13.1786 -13.8051 19.305 20.8351 -13.8051
305 1 -14.3334 -11.9401 -13.2495 -14.3334 -11.9401 -13.2495
1924 1 -12.7012 -12.5298 -13.1083 -12.7012 -12.5298 -13.1083
1868 1 -11.9335 -11.4894 -14.5628 -11.9335 -11.4894 -14.5628
4413 1 -10.7138 -11.6629 -14.1332 -10.7138 22.3508 -14.1332
12676 1 -8.67399 -12.3415 -15.3157 25.3397 21.6722 -15.3157
130 1 -7.89253 -11.1415 -15.1311 -7.89253 -11.1415 -15.1311
82 1 -6.05333 -11.4207 -14.089 -6.05333 -11.4207 -14.089
8959 1 -3.90358 -12.1842 -12.9164 -3.90358 -12.1842 -12.9164
2121 1 -1.27608 -10.827 -14.3835 -1.27608 -10.827 -14.3835
3882 1 -2.19271 -12.0935 -12.8345 -2.19271 -12.0935 -12.8345
12783 1 -1.03241 -12.8296 -13.1262 -1.03241 21.1841 -13.1262
5086 1 -15.3079 -10.5071 -12.9136 -15.3079 23.5066 21.1001
5067 1 -17.0048 -11.797 -15.1275 -17.0048 -11.797 -15.1275
4316 1 -13.4707 -10.4637 -13.2079 -13.4707 23.55 -13.2079
5597 1 -12.1954 -10.203 -13.9419 -12.1954 23.8107 -13.9419
3263 1 -10.7762 -9.91298 -14.3525 -10.7762 -9.91298 19.6612
9636 1 -8.08807 -10.1727 -13.7399 -8.08807 -10.1727 -13.7399
2060 1 -7.13113 -9.95912 -12.6921 -7.13113 -9.95912 21.3216
11018 1 -4.10188 -9.98094 -13.4767 -4.10188 -9.98094 20.537
8214 1 -5.20754 -10.9568 -13.5354 -5.20754 23.0569 20.4783
6512 1 -2.91243 -11.4882 -13.9568 -2.91243 22.5255 20.0569
495 1 -2.42354 -10.4732 -13.0851 -2.42354 -10.4732 -13.0851
16370 1 -1.01788 -10.3902 -13.0034 -1.01788 23.6235 21.0103
8938 1 -16.9594 -10.7723 -14.9917 17.0543 -10.7723 -14.9917
888 1 -15.3549 -9.48642 -12.0262 -15.3549 -9.48642 -12.0262
228 1 -14.2 -9.00087 -12.2742 -14.2 -9.00087 -12.2742
12058 1 -12.7732 -9.24157 -13.5286 21.2405 -9.24157 20.4851
2381 1 -11.2829 -8.71358 -14.0788 -11.2829 -8.71358 19.9349
791 1 -8.77838 -8.57902 -14.5407 -8.77838 -8.57902 -14.5407
7956 1 -10.1821 -11.3916 -12.9649 -10.1821 22.6221 -12.9649
1294 1 -8.9683 -10.3982 -12.7069 -8.9683 -10.3982 -12.7069
9906 1 -6.04686 -9.92186 -14.0363 -6.04686 -9.92186 -14.0363
1012 1 -7.20125 -8.11118 -13.0774 -7.20125 -8.11118 -13.0774
2022 1 -5.52033 -8.89437 -13.2065 -5.52033 -8.89437 -13.2065
15036 1 -3.15897 -9.94493 -12.4741 -3.15897 -9.94493 21.5396
10137 1 -4.15151 -9.61636 -14.98 -4.15151 -9.61636 -14.98
9352 1 -0.449766 -10.6093 -11.4236 -0.449766 -10.6093 -11.4236
7428 1 -5.46636 -16.5632 -16.455 -5.46636 17.4505 17.5587
1043 1 -16.371 -5.95819 -13.5241 17.6427 -5.95819 -13.5241
11013 1 -15.1705 -10.4024 -13.9923 18.8432 -10.4024 20.0214
2368 1 -14.4378 -7.21777 -12.3681 -14.4378 -7.21777 21.6456
912 1 -13.0674 -8.14606 -12.6816 -13.0674 -8.14606 -12.6816
9831 1 -12.1641 -7.14647 -12.8334 21.8496 -7.14647 -12.8334
1201 1 -13.367 -6.98303 -12.8221 -13.367 -6.98303 -12.8221
3748 1 -11.86 -8.56414 -12.7552 -11.86 -8.56414 21.2585
472 1 -10.1598 -7.47289 -12.8602 -10.1598 -7.47289 -12.8602
1676 1 -8.87465 -7.70788 -13.0453 -8.87465 -7.70788 -13.0453
11112 1 -6.56972 -7.23813 -13.1863 -6.56972 -7.23813 20.8274
8711 1 -8.44916 -7.55782 -14.9241 -8.44916 -7.55782 -14.9241
5756 1 -4.66833 -7.66038 -13.7485 -4.66833 26.3533 20.2652
8340 1 -4.22285 -8.59898 -13.2048 -4.22285 -8.59898 -13.2048
5446 1 -1.87746 -8.36314 -12.8216 -35.8912 -8.36314 -12.8216
9579 1 -1.47802 -7.68862 -13.959 -1.47802 -7.68862 -13.959
2761 1 -15.1067 -6.71588 -13.3545 -15.1067 -6.71588 -13.3545
12505 1 -16.6884 -5.57135 -15.2186 17.3253 28.4424 -15.2186
15720 1 -13.7875 -7.1679 -14.2168 20.2262 -7.1679 19.7969
11955 1 -11.8357 -5.91994 -13.4265 -11.8357 -5.91994 20.5872
12483 1 -10.6789 -6.53269 -13.5655 -10.6789 -6.53269 -13.5655
9089 1 -9.3842 -7.01628 -14.1881 -9.3842 -7.01628 -14.1881
12149 1 -8.28508 -6.21103 -13.3456 -8.28508 -6.21103 20.6681
12043 1 -6.52647 -5.56462 -14.999 -6.52647 -5.56462 19.0147
8390 1 -6.2711 -5.94876 -13.5567 -6.2711 -5.94876 -13.5567
14071 1 -5.03415 -5.16407 -14.8546 -5.03415 28.8496 -14.8546
2075 1 -4.74275 -6.37422 -13.2345 -4.74275 -6.37422 20.7792
10992 1 -3.35647 -6.93337 -13.8223 -3.35647 -6.93337 20.1914
7702 1 -3.31903 -5.6534 -12.9586 -3.31903 -5.6534 21.0551
4062 1 -0.535524 -5.78915 -13.9954 -0.535524 -5.78915 -13.9954
5143 1 -1.05571 -6.36407 -13.2752 -1.05571 -6.36407 -13.2752
9854 1 -15.8275 -5.34529 -12.6535 18.1862 -5.34529 -12.6535
4668 1 -6.45223 -12.2813 -0.0265481 -6.45223 21.7324 -0.0265481
13312 1 -14.6322 -4.74774 -13.4105 19.3815 -4.74774 -13.4105
12818 1 -13.5527 -4.85593 -13.1076 20.461 -4.85593 -13.1076
8007 1 -12.2442 -5.12957 -12.7411 -12.2442 -5.12957 21.2726
2478 1 -12.5255 -4.96203 -14.0297 -12.5255 -4.96203 19.984
1 1 -10.6042 -5.02459 -13.5627 -10.6042 -5.02459 -13.5627
4753 1 -11.2142 -4.6344 -12.7135 -11.2142 -4.6344 -12.7135
9330 1 -9.1966 -4.92159 -13.2953 24.8171 -4.92159 -13.2953
8384 1 -7.09049 -4.55727 -14.2287 -7.09049 -4.55727 -14.2287
8984 1 -5.48257 -5.10823 -13.8268 -5.48257 -5.10823 -13.8268
1095 1 -7.19435 -5.97509 -12.8703 -7.19435 -5.97509 -12.8703
11915 1 -6.10127 -6.32905 -12.286 -6.10127 -6.32905 21.7277
9034 1 -3.79943 -5.68793 -14.4623 -3.79943 -5.68793 -14.4623
3078 1 -2.71076 -4.40303 -13.5042 -2.71076 -4.40303 -13.5042
5230 1 -1.86148 -5.65005 -12.1552 -1.86148 -5.65005 -12.1552
2767 1 -0.185323 -4.62599 -12.8608 -0.185323 -4.62599 -12.8608
5315 1 -16.4831 -2.70719 -15.0654 -16.4831 -2.70719 -15.0654
11686 1 -14.8501 -3.04445 -12.1014 19.1636 -3.04445 21.9124
3649 1 -13.7546 -4.63905 -14.3207 -13.7546 -4.63905 -14.3207
1812 1 -10.8797 -3.75156 -13.4122 -10.8797 -3.75156 -13.4122
8459 1 -7.41959 -3.71463 -12.9875 -7.41959 -3.71463 -12.9875
13508 1 -9.97698 -4.58698 -12.3766 24.0367 -4.58698 -12.3766
1617 1 -6.60141 -2.7196 -13.1648 -6.60141 -2.7196 -13.1648
8515 1 -5.73781 -2.48252 -14.2719 28.2759 -2.48252 -14.2719
9145 1 -1.28756 -3.51478 -13.1745 -1.28756 -3.51478 -13.1745
8961 1 -3.39645 -3.46504 -12.8523 -3.39645 -3.46504 -12.8523
3970 1 -0.212037 -3.78161 -13.9845 -0.212037 -3.78161 20.0292
4403 1 -14.521 -2.4962 -13.797 -14.521 -2.4962 -13.797
11087 1 -13.1073 -2.92226 -13.893 -13.1073 -2.92226 20.1207
2727 1 -11.8636 -2.84548 -13.549 -11.8636 -2.84548 -13.549
6177 1 -9.86399 -2.47253 -14.3982 -9.86399 -2.47253 19.6155
5220 1 -8.21592 -2.19563 -12.5751 -8.21592 -2.19563 -12.5751
3883 1 -9.21398 -3.716 -12.2843 -9.21398 -3.716 21.7294
12024 1 -4.56006 -2.5308 -14.2202 -4.56006 -2.5308 19.7935
7102 1 -3.98811 -0.963304 -13.8703 -3.98811 33.0504 20.1434
6860 1 -3.47177 -2.26952 -13.3223 -3.47177 -2.26952 20.6914
1679 1 -0.986218 -2.90632 -14.4278 -0.986218 -2.90632 -14.4278
3637 1 -15.3214 -16.7707 -6.3518 -15.3214 -16.7707 -6.3518
2585 1 -15.1446 -2.03749 -13.0562 -15.1446 -2.03749 20.9575
120 1 -16.8594 -8.632 -5.41274 -16.8594 -8.632 -5.41274
2019 1 -13.9781 -1.52981 -13.1855 -13.9781 -1.52981 -13.1855
13947 1 -13.6675 -0.967443 -14.7646 20.3462 -0.967443 -14.7646
9657 1 -11.3533 -0.341979 -14.2575 22.6604 -0.341979 -14.2575
14911 1 -12.8827 -0.63365 -13.4449 21.131 -0.63365 20.5688
1336 1 -9.76752 -1.09622 -14.3218 -9.76752 -1.09622 -14.3218
11459 1 -10.7569 -1.05371 -12.9698 23.2568 -1.05371 21.0439
676 1 -9.32945 -1.83911 -13.1648 -9.32945 -1.83911 -13.1648
16290 1 -8.41206 -0.703508 -13.8425 25.6016 -0.703508 -13.8425
2841 1 -5.6987 -0.381283 -12.8719 -5.6987 -0.381283 21.1418
15488 1 -5.68015 -1.69981 -13.1592 28.3336 -1.69981 20.8545
2980 1 -1.71022 -0.694104 -13.7588 -1.71022 -0.694104 -13.7588
15421 1 -0.349536 -7.66776 -16.1139 -0.349536 26.346 -16.1139