ITEM: TIMESTEP
7500
ITEM: NUMBER OF ATOMS
16384
ITEM: BOX BOUNDS pp pp pp
-1.7006855707231768e+01 1.7006855707231768e+01
-1.7006855707231768e+01 1.7006855707231768e+01
-1.7006855707231768e+01 1.7006855707231768e+01
ITEM: ATOMS id type x y z xu yu zu
6256 1 -16.333 -15.3775 -15.7597 -16.333 18.6362 18.254
12813 1 -11.554 -0.0287462 -6.54035 22.4597 -0.0287462 -6.54035
5786 1 -12.8127 -17.0262 -15.8241 -12.8127 16.9875 -15.8241
13105 1 -2.83803 -0.522312 -9.63422 -2.83803 -0.522312 -9.63422
15997 1 -9.63989 -15.8064 -15.8944 -9.63989 18.2074 18.1193
3899 1 -7.19488 -15.1505 -16.7675 -7.19488 -15.1505 17.2462
15205 1 -6.71998 -16.2204 -16.0095 27.2937 17.7933 18.0042
14307 1 -5.29769 -16.5201 -16.6916 28.716 17.4937 -16.6916
15643 1 -12.4258 -0.10709 -8.74942 21.5879 -0.10709 -8.74942
13961 1 -4.73965 -16.793 -15.4882 -4.73965 17.2207 -15.4882
15536 1 -3.01646 -16.0197 -16.5543 -3.01646 17.994 -16.5543
14759 1 -1.77851 -16.7974 -15.8808 -1.77851 17.2163 18.1329
15480 1 -1.01948 -15.5585 -15.729 -1.01948 18.4552 18.2847
3722 1 -15.0118 -14.8362 -16.9679 -15.0118 -14.8362 17.0458
156 1 -13.7234 -16.8826 -5.11055 -13.7234 -16.8826 -5.11055
10387 1 -12.11 -15.7327 -16.3138 21.9037 -15.7327 17.6999
4484 1 -10.6585 -15.8778 -16.4212 -10.6585 18.1359 -16.4212
7734 1 -10.1971 -14.7185 -15.8151 -10.1971 19.2952 18.1986
10597 1 -0.184685 -11.3582 -10.1422 -0.184685 -11.3582 23.8715
9102 1 -8.91772 -14.3038 -16.099 -8.91772 -14.3038 -16.099
4718 1 -7.27525 -14.1314 -16.8215 -7.27525 -14.1314 -16.8215
15814 1 -5.95684 -14.801 -15.7628 -5.95684 19.2127 18.2509
5291 1 -3.08661 -14.6649 -15.3279 -3.08661 19.3488 -15.3279
16084 1 -3.90814 -15.8321 -16.1183 -3.90814 18.1817 17.8954
10478 1 -2.78266 -13.7671 -16.7298 -2.78266 -13.7671 17.2839
10084 1 -0.0824366 -13.6264 -15.9946 -0.0824366 -13.6264 -15.9946
10378 1 -16.4094 -14.2538 -15.9226 17.6043 -14.2538 18.0912
8453 1 -15.0209 -13.8195 -15.2582 18.9928 -13.8195 -15.2582
15178 1 -14.8139 -13.0671 -16.242 19.1998 20.9466 17.7717
2753 1 -12.8075 -14.7498 -16.7999 -12.8075 -14.7498 17.2138
14247 1 -13.4353 -13.3519 -16.6431 -13.4353 20.6618 -16.6431
3531 1 -10.6794 -13.3468 -16.8144 -10.6794 -13.3468 17.1993
6463 1 -11.8446 -13.5784 -15.3657 -11.8446 20.4353 18.648
5482 1 -9.07267 -12.8546 -16.3238 -9.07267 21.1591 -16.3238
12680 1 -7.25257 -12.8963 -16.4343 -7.25257 21.1174 -16.4343
1048 1 -6.20117 -13.9565 -16.423 -6.20117 -13.9565 -16.423
3934 1 -5.00451 -12.3152 -16.7779 -5.00451 -12.3152 17.2358
7864 1 -4.00296 -13.5676 -16.0193 -4.00296 20.4461 17.9944
5707 1 -3.3543 -12.2135 -15.9181 -3.3543 21.8002 -15.9181
1065 1 -1.39487 -13.6129 -15.9605 -1.39487 -13.6129 -15.9605
12065 1 -8.77548 -12.1316 -0.127381 25.2382 -12.1316 -0.127381
9992 1 -0.340023 -12.6482 -16.9614 33.6737 -12.6482 -16.9614
4910 1 -15.9195 -13.1212 -16.4672 -15.9195 -13.1212 -16.4672
888 1 -14.3307 -11.7108 -16.1865 -14.3307 -11.7108 -16.1865
9359 1 -12.9751 -12.6818 -16.0582 21.0387 -12.6818 -16.0582
9503 1 -11.6782 -13.214 -16.464 22.3355 -13.214 -16.464
4814 1 -11.5539 -11.0397 -16.7475 -11.5539 22.974 -16.7475
1281 1 -10.4252 -11.8861 -15.8503 -10.4252 -11.8861 -15.8503
2449 1 -8.81557 -11.0602 -15.6772 -8.81557 -11.0602 18.3365
10922 1 -7.69497 -11.7558 -16.5989 -7.69497 -11.7558 17.4148
271 1 -5.2057 -11.4981 -15.5699 -5.2057 -11.4981 -15.5699
14206 1 -15.6105 -16.8388 -5.45525 18.4032 17.1749 -5.45525
618 1 -3.88037 -11.518 -16.5898 -3.88037 -11.518 -16.5898
989 1 -2.04782 -11.1326 -15.8041 -2.04782 -11.1326 -15.8041
6397 1 -1.40388 -12.2251 -16.32 -1.40388 21.7887 17.6937
4276 1 -16.0213 -10.1271 -15.7275 -16.0213 23.8866 -15.7275
1363 1 -16.3893 -11.3976 -16.2958 -16.3893 -11.3976 -16.2958
12058 1 -14.1232 -10.3896 -16.0417 19.8905 -10.3896 17.972
4146 1 -13.0735 -11.0251 -16.8717 -13.0735 22.9886 -16.8717
7432 1 -10.3646 -10.3332 -16.6485 -10.3646 23.6805 17.3653
8072 1 -9.65526 -10.0073 -15.9749 -9.65526 24.0064 18.0388
9246 1 -7.33287 -10.4017 -16.1437 26.6808 -10.4017 -16.1437
5116 1 -5.21054 -10.071 -15.6121 -5.21054 -10.071 -15.6121
2101 1 -15.3186 -16.349 -15.6633 -15.3186 -16.349 18.3504
10790 1 -3.50278 -10.0235 -15.2002 -3.50278 -10.0235 18.8136
11063 1 -3.00695 -10.3992 -16.9522 -3.00695 -10.3992 17.0615
10952 1 -0.95819 -11.1287 -16.1528 -0.95819 -11.1287 17.8609
8548 1 -1.5445 -10.1627 -16.4338 -1.5445 -10.1627 -16.4338
8938 1 -15.1263 -9.35634 -16.2754 18.8874 -9.35634 -16.2754
11319 1 -12.4747 -9.71874 -16.1839 21.539 -9.71874 17.8298
3951 1 -14.0532 -8.75112 -17.0196 -14.0532 -8.75112 16.9941
1145 1 -12.1481 -8.54199 -15.8329 -12.1481 -8.54199 -15.8329
376 1 -11.2419 -9.0117 -16.2671 -11.2419 -9.0117 -16.2671
8583 1 -11.2539 -10.2054 -15.4016 -11.2539 -10.2054 -15.4016
8965 1 -10.1293 -8.50861 -16.406 23.8845 -8.50861 -16.406
13612 1 -8.38423 -9.67617 -16.2177 25.6295 -9.67617 -16.2177
6129 1 -6.47769 -9.46372 -15.8635 -6.47769 -9.46372 18.1503
2063 1 -5.33957 -9.01515 -16.7204 -5.33957 -9.01515 17.2933
11422 1 -6.27091 -10.1392 -16.795 27.7428 -10.1392 17.2187
1464 1 -3.65562 -9.43833 -16.5853 -3.65562 -9.43833 -16.5853
2393 1 -2.44547 -9.20114 -15.805 -2.44547 -9.20114 -15.805
11923 1 -1.10829 -8.86299 -16.6402 -1.10829 -8.86299 -16.6402
15644 1 -10.0356 -0.197672 -12.7398 23.9781 -0.197672 21.2739
10086 1 -7.0226 -0.157187 -16.635 -7.0226 -0.157187 -16.635
2798 1 -15.7352 -7.14485 -16.5375 18.2785 -7.14485 17.4762
5294 1 -11.9874 -0.196377 -2.79087 -11.9874 -0.196377 -2.79087
7013 1 -12.6236 -8.31334 -16.8784 -12.6236 25.7004 17.1353
11614 1 -14.1674 -7.28702 -16.9533 19.8463 -7.28702 17.0604
15414 1 -9.65853 -7.03707 -16.9402 24.3552 -7.03707 17.0736
948 1 -8.75147 -8.853 -15.7847 -8.75147 -8.853 -15.7847
3547 1 -7.60491 -8.69696 -16.0702 -7.60491 -8.69696 17.9435
8721 1 -8.60355 -7.15357 -16.0353 -8.60355 -7.15357 -16.0353
13096 1 -5.06987 -0.793309 -15.5307 -5.06987 -0.793309 -15.5307
7029 1 -6.14359 -8.13665 -15.8877 -6.14359 25.8771 18.126
1666 1 -4.18398 -8.17992 -16.5261 -4.18398 -8.17992 -16.5261
461 1 -3.85995 -7.17643 -16.5317 -3.85995 -7.17643 -16.5317
5412 1 -15.6074 -16.9498 -16.708 -15.6074 17.0639 17.3057
8421 1 -2.81105 -7.91189 -15.3055 -2.81105 -7.91189 -15.3055
15421 1 -1.55159 -7.69909 -16.2895 -1.55159 26.3146 -16.2895
456 1 -0.472131 -7.22786 -16.6484 -0.472131 -7.22786 -16.6484
11526 1 -1.27774 -7.93311 -15.116 -1.27774 -7.93311 18.8977
9267 1 -14.6397 -6.52228 -15.3732 19.3741 -6.52228 -15.3732
9148 1 -9.27713 -0.0850624 -4.13976 -9.27713 -0.0850624 -4.13976
702 1 -11.5504 -7.58845 -16.6027 -11.5504 -7.58845 -16.6027
8388 1 -12.1807 -6.52818 -16.2428 -12.1807 -6.52818 -16.2428
324 1 -10.3048 -7.19333 -15.8562 -10.3048 -7.19333 -15.8562
11930 1 -11.1369 -5.54099 -16.3683 22.8768 -5.54099 17.6454
12459 1 -8.22644 -5.91738 -15.6011 -8.22644 28.0963 -15.6011
1020 1 -5.8615 -6.08222 -16.2138 -5.8615 -6.08222 -16.2138
8384 1 -5.75726 -7.09929 -15.5841 -5.75726 -7.09929 -15.5841
15213 1 -2.32106 -6.95469 -16.6099 -2.32106 27.059 17.4038
5143 1 -2.2281 -5.87704 -15.7212 -2.2281 -5.87704 -15.7212
12429 1 -1.25548 -6.29762 -16.6383 -1.25548 27.7161 -16.6383
6576 1 -0.0779406 -7.4706 -1.89652 -0.0779406 -7.4706 -1.89652
7597 1 -0.720338 -0.872824 -0.894881 -0.720338 -0.872824 -0.894881
13146 1 -16.4204 -4.161 -16.4456 17.5933 -4.161 -16.4456
5891 1 -14.1782 -4.9721 -15.4608 -14.1782 -4.9721 -15.4608
865 1 -13.2066 -5.40091 -15.8571 -13.2066 -5.40091 -15.8571
1867 1 -10.065 -4.6991 -16.56 -10.065 -4.6991 -16.56
14187 1 -9.25542 -6.18994 -16.2485 24.7583 -6.18994 -16.2485
11415 1 -7.21864 -5.66916 -16.9739 26.7951 -5.66916 17.0398
762 1 -5.39353 -4.49561 -16.2381 -5.39353 -4.49561 -16.2381
7837 1 -3.24038 -6.04956 -16.489 -3.24038 -6.04956 17.5247
9145 1 -3.319 -4.94224 -16.0387 -3.319 -4.94224 -16.0387
9314 1 -2.22141 -4.71675 -16.3927 -2.22141 -4.71675 -16.3927
1606 1 -0.553109 -4.35065 -15.9642 -0.553109 -4.35065 -15.9642
9024 1 -0.0486135 -4.92966 -17.0048 -0.0486135 -4.92966 -17.0048
9757 1 -0.285749 -11.2617 -8.5051 -0.285749 -11.2617 -8.5051
10583 1 -13.1476 -3.11174 -15.1213 20.8661 -3.11174 -15.1213
1862 1 -14.156 -2.91893 -16.8677 -14.156 -2.91893 -16.8677
10814 1 -12.0943 -3.03315 -16.2151 21.9194 -3.03315 -16.2151
2906 1 -10.8536 -3.50443 -16.1389 -10.8536 -3.50443 17.8748
1279 1 -8.73323 -3.96326 -16.6691 -8.73323 -3.96326 -16.6691
9624 1 -7.80936 -3.88448 -15.7351 26.2043 -3.88448 -15.7351
5081 1 -7.14351 -4.32268 -16.6071 -7.14351 -4.32268 -16.6071
8459 1 -5.58218 -3.13304 -16.6962 -5.58218 -3.13304 -16.6962
2026 1 -4.01606 -2.60341 -16.1079 -4.01606 -36.6171 -16.1079
3970 1 -3.19357 -3.57058 -16.0464 -3.19357 -3.57058 17.9673
12399 1 -0.24722 -14.9956 -5.07679 -0.24722 19.0181 -5.07679
9149 1 -16.8331 -2.24432 -15.7921 17.1807 -2.24432 -15.7921
16350 1 -17.0168 -1.91251 -16.9804 16.9969 -1.91251 17.0333
13684 1 -15.2978 -1.9066 -16.6572 18.7159 -1.9066 -16.6572
15607 1 -14.0947 -2.04567 -16.3236 19.919 -2.04567 17.6901
3051 1 -13.1294 -2.03819 -15.6946 -13.1294 -2.03819 18.3191
6578 1 -9.68988 -3.2185 -15.9042 -9.68988 -3.2185 18.1095
2291 1 -10.7401 -2.33269 -15.287 -10.7401 -2.33269 18.7267
248 1 -0.28712 -3.02162 -11.2523 -0.28712 -3.02162 -11.2523
1487 1 -7.83591 -2.75602 -16.5808 -7.83591 -2.75602 -16.5808
14550 1 -9.14893 -2.32917 -16.0916 -9.14893 -2.32917 17.9221
12222 1 -6.59206 -2.64656 -16.4292 -6.59206 -2.64656 17.5845
8871 1 -5.14901 -1.95744 -16.1421 28.8647 -1.95744 -16.1421
5397 1 -0.175862 -16.4686 -11.5417 -0.175862 17.5451 -11.5417
1047 1 -2.65178 -2.07193 -16.0478 -2.65178 -2.07193 -16.0478
2980 1 -1.3934 -3.20339 -16.1151 -1.3934 -3.20339 -16.1151
9082 1 -1.03523 -2.01787 -15.9577 -1.03523 -2.01787 -15.9577
12753 1 -14.9167 -0.979883 -15.5368 19.097 -0.979883 -15.5368
10770 1 -16.1319 -0.386007 -15.5662 17.8818 -0.386007 18.4475
9936 1 -7.43477 -4.10418 -0.325506 26.5789 -4.10418 -0.325506
15245 1 -13.741 -0.436741 -15.7879 20.2727 -0.436741 18.2258
1072 1 -12.5019 -0.703895 -15.5726 -12.5019 -0.703895 -15.5726
5524 1 -11.9467 -1.80444 -16.4018 -11.9467 -1.80444 -16.4018
3795 1 -10.1021 -1.47019 -16.2219 -10.1021 -1.47019 17.7918
64 1 -8.75656 -0.811529 -16.2476 -8.75656 -0.811529 -16.2476
16358 1 -7.60201 -1.77253 -16.3181 26.4117 -1.77253 17.6956
684 1 -7.66181 -0.719742 -15.9437 -7.66181 -0.719742 -15.9437
1570 1 -16.6683 -4.89242 -14.3755 17.3455 -4.89242 -14.3755
512 1 -1.97397 -3.85152 -16.8273 -1.97397 -3.85152 -16.8273
3835 1 -4.19915 -1.40633 -16.4551 -4.19915 -1.40633 17.5587
4790 1 -2.94811 -0.202477 -14.5949 -2.94811 -0.202477 -14.5949
6230 1 -0.317222 -10.6525 -12.3927 -0.317222 -10.6525 21.621
4935 1 -0.347729 -6.20917 -15.8725 -0.347729 -6.20917 -15.8725
953 1 -1.12563 -0.49428 -16.6553 -1.12563 -0.49428 -16.6553
16116 1 -7.14482 -6.66989 -16.9651 26.8689 27.3438 17.0486
12326 1 -15.332 -15.7483 -14.2199 18.6817 -15.7483 19.7939
13193 1 -13.741 -15.675 -15.7835 20.2727 18.3387 -15.7835
10041 1 -13.3319 -16.6008 -14.7913 20.6818 -16.6008 -14.7913
3418 1 -11.7254 -16.0147 -15.1058 -11.7254 -16.0147 18.9079
4829 1 -10.2636 -16.1866 -14.1279 -10.2636 17.8271 -14.1279
7751 1 -9.20795 -16.8814 -15.2721 -9.20795 17.1323 18.7416
10093 1 -7.99453 -16.7217 -15.899 26.0192 -16.7217 -15.899
2298 1 -7.95522 -16.2213 -14.5281 -7.95522 -16.2213 19.4857
292 1 -6.12497 -16.7483 -14.8189 -6.12497 -16.7483 -14.8189
4519 1 -5.28214 -15.8331 -15.04 -5.28214 18.1806 -15.04
11914 1 -2.97789 -15.6672 -15.0605 -2.97789 -15.6672 18.9532
1661 1 -4.32389 -15.1705 -15.0499 -4.32389 -15.1705 -15.0499
4616 1 -1.85952 -16.0295 -14.9601 -1.85952 17.9842 -14.9601
10502 1 -0.636101 -16.3829 -14.81 33.3776 -16.3829 19.2037
12844 1 -16.1673 -14.5643 -14.614 17.8464 19.4494 -14.614
7981 1 -15.1165 -15.3486 -15.5156 -15.1165 18.6651 18.4981
8786 1 -14.1042 -14.0673 -14.5302 19.9095 -14.0673 -14.5302
2114 1 -13.6196 -14.4329 -16.0833 -13.6196 -14.4329 17.9304
14994 1 -12.687 -14.8696 -15.3993 21.3267 19.1441 18.6144
6866 1 -11.6647 -14.2996 -14.5139 -11.6647 19.7141 19.4998
12676 1 -10.3801 -15.7945 -15.1239 23.6337 18.2192 -15.1239
6420 1 -8.27616 -15.2985 -15.3712 -8.27616 18.7152 18.6425
5235 1 -7.74216 -14.4011 -14.2918 -7.74216 -14.4011 -14.2918
1970 1 -6.85474 -15.2571 -15.5838 -6.85474 -15.2571 -15.5838
15998 1 -5.78357 -14.6532 -13.9724 -5.78357 -14.6532 20.0413
910 1 -5.09434 -13.9298 -15.1168 -5.09434 -13.9298 -15.1168
12118 1 -4.6248 -14.7478 -14.0452 -4.6248 -14.7478 -14.0452
11359 1 -1.88702 -14.0567 -14.0771 -1.88702 -14.0567 19.9366
15558 1 -2.01766 -14.9753 -16.1024 -2.01766 19.0384 17.9113
10628 1 -1.68015 -14.7175 -14.9039 -1.68015 -14.7175 19.1098
2560 1 -4.2119 -3.71189 -16.4413 -4.2119 -3.71189 17.5724
7800 1 -16.5821 -13.2562 -14.0564 -16.5821 20.7575 19.9573
1603 1 -14.3518 -13.0421 -14.7868 -14.3518 -13.0421 -14.7868
11940 1 -12.9627 -13.2324 -14.5057 21.0511 -13.2324 19.508
10862 1 -11.1721 -13.0343 -13.6894 22.8416 -13.0343 20.3243
14619 1 -10.5845 -14.6483 -14.75 23.4292 19.3654 -14.75
13995 1 -9.95346 -12.9742 -15.475 -9.95346 21.0395 -15.475
3745 1 -7.93539 -13.6471 -15.5654 -7.93539 -13.6471 18.4483
10048 1 -6.26453 -13.1919 -15.3396 -6.26453 -13.1919 -15.3396
4030 1 -6.2638 -13.5616 -14.1115 -6.2638 -13.5616 19.9022
12295 1 -5.17733 -12.5539 -14.3131 -5.17733 -12.5539 19.7006
11234 1 -4.18261 -13.6799 -14.3546 -4.18261 -13.6799 19.6591
10788 1 -3.02748 -13.3192 -15.2503 30.9862 -13.3192 18.7634
8889 1 -0.586435 -13.5788 -14.1372 -0.586435 -13.5788 -14.1372
254 1 -0.602269 -12.7518 -14.9877 -0.602269 -12.7518 -14.9877
3103 1 -16.9272 -12.8237 -15.843 -16.9272 -12.8237 18.1707
7695 1 -15.8848 -11.9266 -14.2634 -15.8848 22.0872 19.7504
305 1 -15.3922 -12.0481 -15.4077 -15.3922 -12.0481 -15.4077
16266 1 -13.89 -12.0459 -15.3017 20.1237 21.9679 -15.3017
2868 1 -12.0673 -12.262 -14.7158 -12.0673 -12.262 19.2979
8774 1 -11.3372 -12.4447 -15.5568 -11.3372 -12.4447 -15.5568
312 1 -8.59612 -12.4333 -15.2005 -8.59612 -12.4333 18.8132
4413 1 -9.58299 -11.3891 -14.8838 -9.58299 22.6246 -14.8838
4980 1 -8.07283 -11.1864 -14.5469 -8.07283 -11.1864 -14.5469
3906 1 -7.59189 -12.3745 -15.5887 -7.59189 -12.3745 18.425
10664 1 -6.14264 -11.8163 -14.9065 27.8711 -11.8163 19.1072
11401 1 -4.87367 -12.7748 -15.641 -4.87367 -12.7748 18.3727
4665 1 -4.0957 -12.4135 -14.7797 -4.0957 21.6002 -14.7797
12783 1 -2.75712 -12.3427 -14.6997 -2.75712 21.671 -14.6997
10844 1 -1.62371 -12.1432 -13.7352 -1.62371 -12.1432 20.2786
4923 1 -15.906 -10.6239 -14.213 -15.906 23.3898 -14.213
1883 1 -15.1766 -10.5787 -15.0671 -15.1766 -10.5787 -15.0671
14050 1 -12.9492 -11.1241 -15.5561 21.0645 22.8896 18.4576
8937 1 -11.1532 -11.3683 -14.6063 22.8605 -11.3683 -14.6063
9906 1 -9.8978 -9.5616 -14.7005 -9.8978 -9.5616 -14.7005
1798 1 -8.75888 -10.4834 -13.9755 -8.75888 -10.4834 -13.9755
12208 1 -7.00187 -10.7238 -15.0379 27.0118 -10.7238 18.9758
13343 1 -6.62567 -10.471 -13.8536 -6.62567 23.5427 -13.8536
10137 1 -4.26294 -11.2247 -14.9634 -4.26294 -11.2247 -14.9634
2490 1 -5.46627 -11.1693 -14.2629 -5.46627 -11.1693 19.7508
2128 1 -3.20313 -11.2249 -15.4112 -3.20313 -11.2249 18.6025
3816 1 -1.86955 -10.2407 -15.0568 -1.86955 -10.2407 18.9569
14227 1 -10.1987 -5.87259 -16.5937 23.815 -5.87259 -16.5937
9355 1 -1.53644 -11.6239 -14.9071 -1.53644 -11.6239 19.1066
14471 1 -14.5543 -7.16565 -0.144889 19.4594 26.8481 -0.144889
1348 1 -16.3851 -8.86026 -15.7685 -16.3851 -8.86026 -15.7685
4692 1 -16.7614 -9.48757 -14.4321 -16.7614 -9.48757 -14.4321
10243 1 -14.8037 -9.16825 -15.3188 -14.8037 -9.16825 -15.3188
10385 1 -13.5119 -8.5851 -14.2092 20.5018 -8.5851 -14.2092
13199 1 -13.7112 -9.75662 -15.2947 -13.7112 24.2571 -15.2947
13987 1 -12.5499 -9.3538 -14.9745 21.4638 -9.3538 -14.9745
4269 1 -11.4164 -9.22531 -14.4876 -11.4164 -9.22531 -14.4876
2243 1 -10.1594 -8.92987 -13.7455 -10.1594 -8.92987 20.2682
6141 1 -8.82896 -8.75602 -14.5138 -8.82896 25.2577 19.4999
1321 1 -5.5688 -9.70228 -14.4275 -5.5688 -9.70228 -14.4275
3125 1 -4.61493 -9.90246 -14.663 -4.61493 -9.90246 19.3507
5446 1 -4.67137 -8.33669 -15.4013 -38.6851 -8.33669 -15.4013
11018 1 -3.67444 -8.95362 -14.5666 -3.67444 -8.95362 19.4471
10615 1 -1.22514 -9.07686 -15.2222 -1.22514 -9.07686 18.7915
2256 1 -16.0277 -7.18663 -15.396 -16.0277 -7.18663 18.6177
9400 1 -14.4702 -8.03625 -15.9897 19.5435 -8.03625 18.024
7783 1 -14.9861 -8.23897 -14.751 -14.9861 25.7747 -14.751
11013 1 -13.2557 -8.17873 -15.9396 20.758 -8.17873 18.0741
7447 1 -13.8971 -7.25565 -14.9139 -13.8971 -7.25565 19.0998
2832 1 -12.5848 -7.47166 -15.1421 -12.5848 -7.47166 18.8716
12124 1 -11.4093 -7.89198 -13.8389 -11.4093 -7.89198 -13.8389
2163 1 -10.0007 -8.36722 -15.0989 -10.0007 -8.36722 18.9148
12672 1 -11.1667 -8.15627 -15.3262 22.847 -8.15627 -15.3262
320 1 -8.29644 -7.51006 -15.1083 -8.29644 -7.51006 -15.1083
14117 1 -7.05669 -7.40527 -14.0783 -7.05669 -7.40527 -14.0783
11112 1 -7.08548 -8.58646 -14.6172 -7.08548 -8.58646 19.3965
10134 1 -7.27212 -7.42451 -16.1765 -7.27212 -7.42451 -16.1765
9939 1 -5.85164 -8.45696 -14.8171 -5.85164 -8.45696 -14.8171
1727 1 -4.60514 -7.77364 -14.1037 -4.60514 -7.77364 -14.1037
1248 1 -2.40822 -8.95657 -14.8022 -2.40822 -8.95657 -14.8022
12128 1 -15.7244 -5.8902 -16.1019 -15.7244 -5.8902 -16.1019
3649 1 -15.576 -6.70782 -13.6559 -15.576 -6.70782 -13.6559
468 1 -15.1833 -5.91798 -14.7241 -15.1833 -5.91798 -14.7241
6725 1 -12.7243 -6.66927 -14.4896 -12.7243 -6.66927 19.5241
8777 1 -11.9701 -5.94045 -14.8569 -11.9701 -5.94045 19.1569
2478 1 -11.2811 -6.98209 -14.9206 -11.2811 -6.98209 19.0931
10453 1 -8.60661 -6.38361 -14.6849 25.4071 -6.38361 19.3288
12043 1 -7.242 -6.76773 -14.9965 -7.242 -6.76773 19.0172
14071 1 -5.57192 -5.60391 -14.6454 -5.57192 28.4098 -14.6454
2242 1 -4.14125 -5.8587 -16.0917 -4.14125 -5.8587 17.922
452 1 -4.88927 -6.74642 -14.3692 -4.88927 -6.74642 -14.3692
9034 1 -3.64261 -6.40241 -15.3976 -3.64261 -6.40241 -15.3976
1677 1 -2.63143 -6.06422 -14.3115 -2.63143 -6.06422 -14.3115
4062 1 -1.85935 -6.8807 -15.0464 -1.85935 -6.8807 -15.0464
2352 1 -0.57436 -6.17323 -14.8906 -0.57436 -6.17323 -14.8906
13312 1 -15.8607 -4.91823 -15.0789 18.153 -4.91823 -15.0789
1043 1 -16.7923 -6.15673 -14.678 17.2214 -6.15673 -14.678
224 1 -13.717 -5.71561 -14.8364 -13.717 -5.71561 -14.8364
11087 1 -12.5448 -4.60875 -14.622 -12.5448 -4.60875 19.3917
10268 1 -10.9448 -5.28908 -14.4068 23.0689 -5.28908 -14.4068
7698 1 -11.3552 -4.33114 -15.4397 -11.3552 -4.33114 18.574
15042 1 -10.2058 -5.60905 -15.3975 23.8079 -5.60905 18.6162
3885 1 -8.68893 -4.82744 -15.106 -8.68893 -4.82744 18.9077
12771 1 -6.56867 -5.22565 -15.6949 -6.56867 28.7881 -15.6949
5203 1 -4.90659 -5.28209 -15.3829 -38.9203 -5.28209 -15.3829
8984 1 -2.60488 -5.009 -14.896 -2.60488 -5.009 -14.896
1707 1 -1.4819 -5.22387 -15.1948 -1.4819 -5.22387 -15.1948
9410 1 -16.4199 -3.74722 -14.9691 17.5938 -3.74722 -14.9691
16163 1 -14.8168 -3.93977 -15.5864 19.1969 -3.93977 18.4273
15775 1 -15.5654 -3.59738 -14.3536 18.4483 -3.59738 19.6601
4904 1 -13.0244 -3.59899 -13.9394 -13.0244 -3.59899 -13.9394
5131 1 -12.2329 -4.56786 -16.2297 -12.2329 -4.56786 -16.2297
1336 1 -11.9364 -3.62466 -14.7764 -11.9364 -3.62466 -14.7764
12986 1 -10.5229 -3.10491 -14.4868 -10.5229 -3.10491 -14.4868
11190 1 -10.02 -4.14938 -14.858 -10.02 -4.14938 19.1557
4849 1 -9.25999 -2.9166 -14.3768 -9.25999 31.0971 19.6369
10506 1 -7.98589 -3.43152 -14.661 26.0278 -3.43152 19.3527
7782 1 -6.48757 -3.20927 -15.3266 -6.48757 -3.20927 18.6871
8515 1 -6.29111 -4.46097 -14.4567 27.7226 -4.46097 -14.4567
838 1 -5.01869 -3.96299 -14.1022 -5.01869 -3.96299 -14.1022
5089 1 -4.10404 -4.03906 -15.3532 -4.10404 -4.03906 -15.3532
11231 1 -1.58064 -3.94682 -14.9571 -1.58064 -3.94682 19.0566
10391 1 -0.545536 -3.29837 -15.0813 -0.545536 -3.29837 -15.0813
2366 1 -15.1519 -2.25401 -14.2597 -15.1519 -2.25401 19.754
9079 1 -14.91 -2.61921 -15.465 19.1037 -2.61921 -15.465
15100 1 -13.4083 -2.04964 -14.097 20.6054 -2.04964 19.9167
13268 1 -12.1099 -2.23116 -15.1984 -12.1099 -2.23116 -15.1984
7006 1 -9.68075 -2.00714 -15.0974 -9.68075 -2.00714 18.9163
5352 1 -8.5692 -2.02883 -14.902 -8.5692 -2.02883 -14.902
5220 1 -7.57921 -1.2175 -15.0349 -7.57921 -1.2175 -15.0349
12090 1 -5.02147 -2.37061 -14.5046 28.9922 -2.37061 19.5091
12024 1 -2.98734 -3.26412 -14.5071 -2.98734 -3.26412 19.5066
7102 1 -3.51629 -1.7107 -15.1896 -3.51629 32.303 18.8241
5596 1 -2.00234 -2.75395 -14.8386 -2.00234 31.2598 -14.8386
12405 1 -0.555912 -2.31158 -13.7908 -0.555912 -2.31158 -13.7908
13751 1 -1.74998 -0.246866 -11.7577 -1.74998 -0.246866 -11.7577
11169 1 -16.164 -1.67017 -14.9375 17.8497 -1.67017 19.0762
12660 1 -14.3716 -0.869525 -14.4213 19.6421 -0.869525 -14.4213
14786 1 -13.0929 -1.02314 -14.4266 20.9208 -1.02314 19.5871
1697 1 -10.114 -0.5619 -14.2946 -10.114 -0.5619 -14.2946
892 1 -11.3106 -0.749051 -15.7076 -11.3106 -0.749051 -15.7076
3495 1 -9.06273 -0.440638 -15.2621 -9.06273 -0.440638 18.7516
14727 1 -10.1255 -0.019881 -15.4699 -10.1255 -0.019881 -15.4699
3147 1 -7.53288 -0.115967 -14.516 -7.53288 -0.115967 19.4977
3286 1 -6.30058 -1.37093 -15.6139 -6.30058 -1.37093 -15.6139
9361 1 -4.80047 -1.242 -14.6586 -4.80047 -1.242 -14.6586
12294 1 -2.11845 -1.16936 -15.4581 -2.11845 -1.16936 18.5556
4329 1 -0.934019 -0.359414 -15.1821 -0.934019 -0.359414 -15.1821
10250 1 -16.3239 -16.1538 -13.4808 17.6898 -16.1538 -13.4808
1528 1 -7.64649 -0.383987 -1.04724 -7.64649 -0.383987 -1.04724
1514 1 -15.0025 -15.4475 -12.8756 -15.0025 -15.4475 -12.8756
5981 1 -16.8801 -2.69938 -4.73467 -16.8801 -2.69938 -4.73467
8535 1 -14.0598 -15.5479 -14.1363 -14.0598 -15.5479 -14.1363
11033 1 -16.8332 -12.8642 -13.1257 17.1805 -12.8642 20.888
12348 1 -9.77509 -15.836 -13.2124 24.2386 -15.836 -13.2124
40 1 -16.5587 -6.5979 -2.60025 -16.5587 -6.5979 -2.60025
855 1 -8.52701 -16.3654 -12.779 -8.52701 -16.3654 -12.779
15571 1 -13.9633 -0.00770057 -11.8564 20.0504 -0.00770057 22.1573
9278 1 -6.71946 -15.7053 -14.1542 -6.71946 -15.7053 -14.1542
3417 1 -4.90265 -16.0967 -13.869 -4.90265 -16.0967 20.1447
804 1 -3.13534 -15.5047 -13.3717 -3.13534 -15.5047 -13.3717
14552 1 -1.61026 -15.1757 -13.5211 -1.61026 18.838 20.4926
15460 1 -2.30695 -16.3315 -13.2275 31.7068 17.6822 20.7862
1229 1 -0.466868 -16.027 -13.3052 -0.466868 -16.027 -13.3052
8192 1 -15.2957 -14.4949 -13.9909 -15.2957 19.5188 20.0228
411 1 -13.4523 -14.1507 -13.1252 -13.4523 -14.1507 -13.1252
9994 1 -11.6606 -13.7858 -12.8349 22.3532 -13.7858 -12.8349
4438 1 -11.5102 -15.5327 -13.6843 -11.5102 18.481 -13.6843
921 1 -12.9973 -14.8633 -13.7523 -12.9973 -14.8633 -13.7523
1193 1 -10.2615 -14.3892 -13.5277 -10.2615 -14.3892 -13.5277
7688 1 -9.06275 -15.0895 -14.289 -9.06275 -15.0895 19.7247
5518 1 -7.54915 -15.3748 -13.5345 -7.54915 18.6389 -13.5345
12550 1 -5.26046 -13.992 -13.2744 -5.26046 -13.992 -13.2744
4680 1 -3.63819 -14.3743 -13.3841 -3.63819 19.6394 -13.3841
6016 1 -2.47262 -14.546 -11.9594 -2.47262 -14.546 -11.9594
5413 1 -0.294635 -14.5647 -13.4962 -0.294635 19.449 -13.4962
9239 1 -14.93 -13.1954 -13.4919 19.0837 20.8183 -13.4919
10207 1 -13.8346 -13.2467 -13.8472 20.1791 -13.2467 -13.8472
12072 1 -8.8845 -13.891 -13.5486 25.1292 -13.891 20.4651
3070 1 -7.72835 -13.3819 -14.0888 -7.72835 -13.3819 19.9249
10535 1 -8.07729 -14.369 -12.5588 25.9364 -14.369 -12.5588
8214 1 -6.53513 -13.0725 -13.1045 -6.53513 20.9412 20.9092
11513 1 -4.97512 -12.843 -13.1226 -4.97512 -12.843 20.8912
321 1 -3.80545 -13.0945 -13.4007 -3.80545 -13.0945 -13.4007
10087 1 -1.40602 -14.5667 -12.4837 -1.40602 -14.5667 -12.4837
5612 1 -0.449598 -13.1548 -12.7449 -0.449598 20.859 -12.7449
256 1 -14.7334 -11.5135 -13.7584 -14.7334 -11.5135 -13.7584
736 1 -13.6283 -12.227 -13.9691 -13.6283 -12.227 -13.9691
1924 1 -13.8836 -12.8999 -12.3506 -13.8836 -12.8999 -12.3506
2238 1 -12.281 -12.5222 -13.2188 -12.281 -12.5222 20.7949
11950 1 -10.3445 -11.133 -13.9982 23.6692 -11.133 20.0156
12886 1 -9.8147 -12.6158 -13.45 -9.8147 21.3979 -13.45
4246 1 -9.16739 -13.0855 -14.2923 -9.16739 20.9282 -14.2923
3645 1 -7.18091 -11.7207 -13.7142 -7.18091 -11.7207 20.2995
10853 1 -7.26704 -12.5809 -14.5906 -7.26704 -12.5809 -14.5906
6512 1 -6.24151 -12.0871 -13.6684 -6.24151 21.9266 20.3453
839 1 -4.83054 -11.3517 -12.9833 -4.83054 -11.3517 -12.9833
13639 1 -2.61058 -11.6765 -13.3007 -2.61058 22.3372 -13.3007
9579 1 -1.13645 -11.6719 -12.5759 -1.13645 -11.6719 -12.5759
12056 1 -4.90677 -14.6182 -16.6068 -4.90677 19.3955 17.4069
1607 1 -16.1443 -11.4142 -13.0776 -16.1443 -11.4142 -13.0776
5597 1 -12.2137 -11.0675 -14.3313 -12.2137 22.9462 -14.3313
13137 1 -13.6102 -10.8807 -14.1895 20.4036 -10.8807 -14.1895
6711 1 -11.1748 -10.902 -12.7169 -11.1748 23.1117 21.2968
8527 1 -12.612 -11.4426 -12.7995 21.4017 -11.4426 -12.7995
10702 1 -10.0553 -10.0411 -13.4921 -10.0553 -10.0411 20.5216
2569 1 -11.1896 -9.58181 -13.5737 -11.1896 -9.58181 20.44
15352 1 -8.82883 -11.6739 -13.4138 25.1849 -11.6739 20.6
15986 1 -8.11617 -10.4034 -12.9338 -8.11617 -10.4034 21.0799
5756 1 -5.961 -11.1618 -12.5747 -5.961 22.8519 21.439
1675 1 -4.7774 -10.078 -13.2872 -4.7774 -10.078 -13.2872
16370 1 -3.82728 -11.7382 -14.0472 -3.82728 22.2755 19.9665
516 1 -2.90495 -10.6633 -14.3641 -2.90495 -10.6633 -14.3641
9352 1 -0.576422 -10.4962 -14.459 -0.576422 -10.4962 -14.459
15695 1 -15.502 -9.26433 -14.162 18.5117 24.7494 19.8517
6853 1 -16.6361 -9.47843 -13.1504 -16.6361 24.5353 20.8634
4316 1 -14.8264 -10.4651 -13.6047 -14.8264 23.5486 -13.6047
16256 1 -14.6699 -8.51817 -12.7313 19.3438 -8.51817 -12.7313
5086 1 -12.9794 -9.60603 -13.7927 -12.9794 24.4077 20.221
12785 1 -8.59437 -9.37853 -12.9981 -8.59437 -9.37853 -12.9981
8711 1 -7.43622 -9.78314 -14.1622 -7.43622 -9.78314 -14.1622
13515 1 -5.98931 -8.29103 -13.3654 28.0244 -8.29103 -13.3654
602 1 -6.09002 -9.78438 -12.9376 -6.09002 -9.78438 -12.9376
8657 1 -4.75499 -9.07063 -13.7404 -4.75499 -9.07063 -13.7404
1831 1 -3.42522 -9.92887 -13.5406 -3.42522 -9.92887 -13.5406
13435 1 -3.50826 -8.70488 -13.0602 -3.50826 25.3088 -13.0602
10240 1 -1.9319 -9.7866 -13.9239 -1.9319 -9.7866 -13.9239
12283 1 -1.53061 -8.55406 -14.0983 -1.53061 -8.55406 19.9155
2454 1 -0.787478 -9.73364 -13.4786 -0.787478 -9.73364 -13.4786
711 1 -5.98416 -6.18283 -0.217634 -5.98416 -6.18283 -0.217634
14547 1 -15.799 -7.74668 -14.0506 18.2147 -7.74668 19.9631
12818 1 -15.4967 -7.86826 -12.6661 18.517 -7.86826 -12.6661
2381 1 -12.5437 -7.76164 -13.3794 -12.5437 -7.76164 20.6343
845 1 -11.899 -8.80372 -12.9417 -11.899 -8.80372 -12.9417
352 1 -10.1393 -7.5668 -13.5579 -10.1393 -7.5668 -13.5579
9089 1 -11.3266 -7.28297 -12.7656 -11.3266 -7.28297 -12.7656
13170 1 -9.24469 -8.15745 -13.2138 -9.24469 25.8563 -13.2138
1012 1 -7.28517 -7.83261 -12.9075 -7.28517 -7.83261 -12.9075
350 1 -3.6777 -7.16934 -14.1659 -3.6777 -7.16934 -14.1659
4941 1 -2.04581 -7.08116 -12.7785 -2.04581 26.9326 -12.7785
2121 1 -2.66592 -8.03587 -13.9432 -2.66592 -8.03587 -13.9432
9990 1 -0.523965 -7.60616 -14.1224 -0.523965 -7.60616 -14.1224
10074 1 -14.8672 -6.06539 -0.48898 19.1465 -6.06539 -0.48898
12977 1 -0.612753 -7.32245 -13.0592 -0.612753 -7.32245 -13.0592
5901 1 -16.3256 -5.81898 -13.6128 -16.3256 -5.81898 -13.6128
1511 1 -14.2312 -6.06996 -13.4018 -14.2312 -6.06996 -13.4018
763 1 -12.3004 -6.49721 -13.5327 -12.3004 -6.49721 -13.5327
10909 1 -10.3707 -5.97138 -12.6384 23.643 -5.97138 21.3753
2022 1 -8.79571 -6.74526 -13.1923 -8.79571 -6.74526 -13.1923
13013 1 -7.8318 -5.83469 -13.103 -7.8318 28.179 -13.103
13514 1 -6.29956 -7.27733 -13.4223 -6.29956 -7.27733 -13.4223
1741 1 -5.46933 -6.34093 -13.5949 -5.46933 -40.3546 -13.5949
12742 1 -3.894 -6.75713 -12.7159 -3.894 27.2566 -12.7159
11915 1 -3.2313 -6.35895 -13.3421 -3.2313 -6.35895 20.6716
9790 1 -1.675 -5.87698 -13.1478 -1.675 -5.87698 -13.1478
6378 1 -0.604085 -6.23384 -13.1508 -0.604085 -6.23384 20.8629
554 1 -16.182 -4.14878 -12.2012 -16.182 -4.14878 -12.2012
1 1 -15.0802 -5.33623 -12.4593 -15.0802 -5.33623 -12.4593
9666 1 -14.8501 -5.15849 -14.055 19.1637 -5.15849 -14.055
3124 1 -13.4196 -4.88519 -14.1106 -13.4196 -4.88519 -14.1106
4753 1 -12.2322 -5.21801 -13.8116 -12.2322 -5.21801 -13.8116
5221 1 -10.2795 -5.99531 -13.7125 -10.2795 28.0184 20.3012
13232 1 -10.5608 -4.21577 -13.5835 23.4529 -4.21577 -13.5835
9330 1 -9.14236 -4.75519 -13.5978 24.8714 -4.75519 -13.5978
9539 1 -8.2318 -5.23296 -14.037 -8.2318 -5.23296 -14.037
11751 1 -6.75193 -5.28073 -13.8332 27.2618 -5.28073 20.1805
2075 1 -4.60751 -5.52311 -13.7877 -4.60751 -5.52311 20.226
3114 1 -2.60496 -4.84695 -13.6462 -2.60496 -4.84695 -13.6462
15544 1 -1.06784 -4.68015 -14.0298 -1.06784 -4.68015 19.9839
16300 1 -16.049 -4.15332 -13.3441 17.9648 -4.15332 20.6696
9620 1 -14.4709 -3.24011 -14.4893 19.5428 -3.24011 -14.4893
5332 1 -11.9291 -4.19313 -13.4206 -11.9291 -4.19313 20.5931
1527 1 -12.7002 -2.37606 -13.1655 -12.7002 -2.37606 -13.1655
622 1 -10.4028 -3.27178 -12.7445 -10.4028 -3.27178 -12.7445
122 1 -6.87942 -3.16091 -13.8998 -6.87942 -3.16091 -13.8998
10130 1 -7.56053 -4.34982 -13.0506 26.4532 -4.34982 -13.0506
4263 1 -6.25588 -4.4003 -12.7865 -6.25588 -4.4003 -12.7865
1679 1 -3.62335 -3.24392 -12.8197 -3.62335 -3.24392 -12.8197
11257 1 -3.81703 -4.24869 -13.8243 -3.81703 -4.24869 20.1894
4386 1 -2.34252 -3.26191 -13.6315 -2.34252 -3.26191 -13.6315
6601 1 -0.955973 -3.49625 -13.9722 -0.955973 -3.49625 20.0415
7710 1 -0.834617 -3.22555 -12.4953 -0.834617 -3.22555 21.5184
5076 1 -15.9774 -2.75672 -13.0432 -15.9774 31.257 -13.0432
8736 1 -13.9022 -2.21157 -12.9319 20.1115 -2.21157 -12.9319
11740 1 -12.0991 -1.96365 -14.015 21.9147 -1.96365 19.9987
2727 1 -11.4559 -3.08354 -13.8695 -11.4559 -3.08354 -13.8695
14073 1 -11.3839 -2.0058 -12.1708 -11.3839 -2.0058 -12.1708
3805 1 -10.3384 -1.63864 -13.8339 -10.3384 -1.63864 20.1798
13491 1 -9.03441 -2.42224 -13.1242 24.9793 31.5915 -13.1242
3855 1 -8.05018 -2.94409 -13.121 -8.05018 -2.94409 20.8927
5049 1 -6.8684 -2.78532 -12.5291 -6.8684 -2.78532 -12.5291
5974 1 -6.41267 -2.2262 -15.0051 -6.41267 -2.2262 -15.0051
9206 1 -5.83011 -1.6517 -13.0465 -5.83011 -1.6517 -13.0465
3078 1 -5.61673 -2.88782 -13.8159 -5.61673 -2.88782 -13.8159
8063 1 -3.33614 -2.45357 -13.7694 -3.33614 -2.45357 20.2443
1472 1 -2.42442 -2.47736 -12.567 -2.42442 -2.47736 -12.567
12173 1 -16.0744 -1.14271 -13.4341 17.9394 -1.14271 20.5796