ITEM: TIMESTEP
4500
ITEM: NUMBER OF ATOMS
16384
ITEM: BOX BOUNDS pp pp pp
-1.7006855707231768e+01 1.7006855707231768e+01
-1.7006855707231768e+01 1.7006855707231768e+01
-1.7006855707231768e+01 1.7006855707231768e+01
ITEM: ATOMS id type x y z xu yu zu
1347 1 -10.0105 -6.35009 -0.123935 -10.0105 -6.35009 -0.123935
7216 1 -15.7499 -16.1176 -16.7781 -15.7499 17.8961 17.2356
11628 1 -13.1606 -16.4961 -16.8729 20.8531 -16.4961 17.1408
248 1 -0.0558033 -5.14718 -11.0583 -0.0558033 -5.14718 -11.0583
2153 1 -9.57633 -16.505 -16.5406 -9.57633 -16.505 17.4731
15997 1 -8.92795 -16.2938 -15.4855 -8.92795 17.7199 18.5282
3899 1 -8.06622 -15.871 -15.9698 -8.06622 -15.871 18.0439
3698 1 -10.2069 -0.622024 -0.554032 -10.2069 -0.622024 -0.554032
1013 1 -11.6573 -16.9056 -13.172 -11.6573 -16.9056 -13.172
7864 1 -4.93727 -15.902 -16.4334 -4.93727 18.1117 17.5803
910 1 -3.8666 -15.5604 -15.8005 -3.8666 -15.5604 -15.8005
7293 1 -3.29109 -14.7235 -0.00949524 -3.29109 19.2902 -0.00949524
10502 1 -0.809729 -16.3122 -15.8917 33.204 -16.3122 18.122
16355 1 -2.79102 -16.7193 -15.5258 -2.79102 17.2944 18.4879
11551 1 -14.7039 -15.8234 -16.1278 19.3098 18.1903 17.8859
14994 1 -11.8331 -15.7638 -16.4498 22.1806 18.2499 17.5639
4484 1 -10.5342 -15.1772 -16.7537 -10.5342 18.8365 -16.7537
13995 1 -9.00214 -15.0081 -16.1221 -9.00214 19.0056 -16.1221
14052 1 -8.01005 -14.6512 -16.9572 26.0037 19.3625 -16.9572
10048 1 -5.6128 -14.7283 -16.0712 -5.6128 -14.7283 -16.0712
4718 1 -7.34871 -14.6466 -15.9827 -7.34871 -14.6466 -15.9827
8332 1 -3.37615 -14.9461 -16.7894 -3.37615 -14.9461 -16.7894
1852 1 -2.35654 -15.3504 -15.3463 -2.35654 -15.3504 -15.3463
10478 1 -1.40727 -14.9284 -16.5202 -1.40727 -14.9284 17.4935
15344 1 -16.7994 -13.7414 -16.6023 17.2143 20.2723 17.4114
5989 1 -15.4393 -14.4355 -15.8973 -15.4393 19.5782 -15.8973
8453 1 -15.1837 -12.9151 -16.023 18.83 -12.9151 -16.023
2114 1 -14.2 -14.1245 -16.0029 -14.2 -14.1245 18.0108
11940 1 -13.4773 -12.9179 -16.0631 20.5364 -12.9179 17.9507
6866 1 -12.942 -13.9998 -16.2735 -12.942 20.0139 17.7402
6272 1 -11.31 -14.1877 -16.4729 -11.31 19.826 17.5408
5478 1 -8.26442 -13.5414 -16.7861 -8.26442 20.4723 -16.7861
7734 1 -9.73502 -13.5266 -16.0372 -9.73502 20.4871 17.9765
15533 1 -7.21654 -13.4798 -16.2714 -7.21654 -13.4798 -16.2714
1795 1 -3.4762 -13.683 -15.9948 -3.4762 -13.683 -15.9948
2689 1 -14.9574 -0.0596278 -5.48224 -14.9574 -0.0596278 -5.48224
10788 1 -2.49478 -14.1577 -15.628 31.5189 -14.1577 18.3857
989 1 -1.4512 -12.8775 -16.224 -1.4512 -12.8775 -16.224
3934 1 -4.71398 -14.4839 -16.9503 -4.71398 -14.4839 17.0635
8635 1 -16.2412 -11.615 -16.0708 17.7725 -11.615 -16.0708
3531 1 -12.113 -12.4112 -16.4103 -12.113 -12.4112 17.6034
2868 1 -13.5462 -11.6416 -16.2482 -13.5462 -11.6416 17.7655
3471 1 -10.7025 -12.8943 -16.7792 -10.7025 -12.8943 17.2345
8072 1 -10.0671 -11.666 -15.7691 -10.0671 22.3477 18.2447
740 1 -9.22052 -16.941 -0.346651 -9.22052 17.0727 -0.346651
2449 1 -7.8251 -11.2567 -16.7853 -7.8251 -11.2567 17.2284
11401 1 -3.76502 -12.0485 -15.9348 -3.76502 -12.0485 18.0789
618 1 -2.44895 -12.455 -15.5206 -2.44895 -12.455 -15.5206
15863 1 -2.12771 -11.4754 -16.787 -2.12771 22.5383 17.2267
2128 1 -0.793878 -11.9952 -15.4893 -0.793878 -11.9952 18.5244
4158 1 -16.1088 -0.0350219 -1.7707 -16.1088 -0.0350219 -1.7707
681 1 -0.176149 -2.90459 -1.06767 -0.176149 -2.90459 -1.06767
9359 1 -14.732 -10.7126 -16.9402 19.2818 -10.7126 -16.9402
8938 1 -15.3274 -9.46969 -16.6508 18.6863 -9.46969 -16.6508
13199 1 -12.4816 -10.2673 -16.3712 -12.4816 23.7464 -16.3712
6218 1 -10.4789 -10.7197 -16.8675 -10.4789 23.294 17.1463
9592 1 -9.26133 -10.6831 -16.1209 -9.26133 -10.6831 -16.1209
6129 1 -6.6742 -11.086 -15.9782 -6.6742 -11.086 18.0355
6849 1 -4.5277 -11.0805 -17.005 -4.5277 -11.0805 17.0087
271 1 -5.12113 -10.2455 -15.9711 -5.12113 -10.2455 -15.9711
13343 1 -4.57822 -11.4131 -15.3684 -4.57822 22.6006 -15.3684
15838 1 -3.37239 -0.923245 -6.37469 -3.37239 -0.923245 -6.37469
11018 1 -2.74071 -11.0735 -15.3983 -2.74071 -11.0735 18.6154
11063 1 -1.11738 -10.1697 -16.1087 -1.11738 -10.1697 17.9051
1348 1 -16.4439 -8.70306 -16.3721 -16.4439 -8.70306 -16.3721
1378 1 -13.9406 -8.97821 -16.3752 -13.9406 -8.97821 -16.3752
2569 1 -11.7788 -9.29829 -15.0526 -11.7788 -9.29829 18.9611
9407 1 -15.2895 -16.5529 -7.30173 18.7242 -16.5529 -7.30173
2243 1 -11.3458 -9.58046 -16.6815 -11.3458 -9.58046 17.3323
15587 1 -9.45833 -9.45353 -16.6812 24.5554 -9.45353 17.3325
13612 1 -8.1725 -9.23355 -16.3444 25.8412 -9.23355 -16.3444
11422 1 -6.66065 -9.68651 -16.7341 27.3531 -9.68651 17.2796
2063 1 -5.18284 -9.08643 -16.4887 -5.18284 -9.08643 17.525
10137 1 -3.89352 -10.4586 -15.6759 -3.89352 -10.4586 -15.6759
2251 1 -14.1363 -0.0351126 -0.174754 -14.1363 -0.0351126 -0.174754
3816 1 -2.42506 -9.72931 -16.0486 -2.42506 -9.72931 17.9651
3995 1 -1.88019 -8.53001 -15.824 -1.88019 -8.53001 18.1897
8581 1 -0.2221 -8.45146 -16.452 -0.2221 -8.45146 -16.452
5379 1 -16.027 -7.13592 -16.9341 -16.027 26.8778 -16.9341
12128 1 -13.9743 -7.20347 -15.6563 -13.9743 -7.20347 -15.6563
5723 1 -15.1738 -7.60915 -15.8187 -15.1738 26.4046 -15.8187
1070 1 -11.6689 -8.48633 -16.9351 -11.6689 -8.48633 -16.9351
2163 1 -8.81106 -7.63224 -15.3822 -8.81106 -7.63224 18.6315
12672 1 -9.77763 -7.11559 -15.5372 24.2361 -7.11559 -15.5372
702 1 -10.3604 -8.16686 -16.5313 -10.3604 -8.16686 -16.5313
7263 1 -7.50633 -7.58201 -16.5127 -7.50633 26.4317 17.501
1321 1 -6.10326 -7.51303 -16.0746 -6.10326 -7.51303 -16.0746
2490 1 -6.59418 -8.78595 -16.0316 -6.59418 -8.78595 17.9821
1666 1 -4.40495 -8.18731 -15.7115 -4.40495 -8.18731 -15.7115
15403 1 -3.65079 -7.14527 -16.5172 -3.65079 -7.14527 17.4965
15421 1 -1.04137 -7.63592 -16.1191 -1.04137 26.3778 -16.1191
2254 1 -16.6474 -5.52642 -16.1658 -16.6474 -5.52642 17.8479
4310 1 -15.3931 -6.17884 -16.0144 -15.3931 27.8349 -16.0144
10886 1 -14.5228 -6.00687 -16.5675 19.4909 -6.00687 17.4462
9267 1 -13.1515 -6.04069 -16.1696 20.8622 -6.04069 -16.1696
7013 1 -12.879 -7.31716 -16.6735 -12.879 26.6966 17.3402
10912 1 -12.045 -5.82733 -16.5747 21.9687 -5.82733 17.439
704 1 -10.3468 -6.92767 -16.5425 -10.3468 -6.92767 -16.5425
14117 1 -9.25703 -6.11034 -16.2177 -9.25703 -6.11034 -16.2177
13013 1 -8.09901 -6.57143 -15.2305 -8.09901 27.4423 -15.2305
12771 1 -6.91595 -6.27223 -16.1949 -6.91595 27.7415 -16.1949
10134 1 -5.04787 -6.83962 -16.9222 -5.04787 -6.83962 -16.9222
128 1 -2.03734 -0.0424932 -6.31791 -2.03734 -34.0562 -6.31791
10992 1 -4.20803 -6.18545 -16.1078 -4.20803 -6.18545 17.9059
1707 1 -1.33598 -6.47809 -16.0949 -1.33598 -6.47809 -16.0949
9619 1 -3.59715 -5.49308 -16.6733 -3.59715 -5.49308 -16.6733
528 1 -14.9818 -4.94291 -16.3308 -14.9818 -4.94291 -16.3308
13964 1 -13.1699 -4.77345 -16.6648 -13.1699 -4.77345 -16.6648
84 1 -11.4864 -4.12172 -16.8717 -11.4864 -4.12172 -16.8717
11930 1 -10.527 -5.62224 -15.6604 23.4867 -5.62224 18.3534
11190 1 -9.07545 -4.95207 -15.6748 -9.07545 -4.95207 18.3389
122 1 -7.69883 -5.12493 -15.5253 -7.69883 -5.12493 -15.5253
12043 1 -5.74601 -5.97573 -15.9963 -5.74601 -5.97573 18.0174
1020 1 -6.66279 -5.22731 -16.6694 -6.66279 -5.22731 -16.6694
7149 1 -5.422 -5.02115 -16.7719 -5.422 -5.02115 17.2418
2242 1 -4.40123 -5.21631 -15.6491 -4.40123 -5.21631 18.3646
7837 1 -2.2459 -5.8807 -16.2189 -2.2459 -5.8807 17.7948
3970 1 -2.31773 -3.99293 -16.6495 -2.31773 -3.99293 17.3642
12429 1 -0.351241 -4.84684 -16.5955 -0.351241 29.1669 -16.5955
13146 1 -16.1498 -4.21259 -16.7303 17.8639 -4.21259 -16.7303
6998 1 -1.23552 -0.805729 -1.3021 -1.23552 -0.805729 -1.3021
865 1 -14.9486 -3.89696 -16.0168 -14.9486 -3.89696 -16.0168
2288 1 -14.0131 -3.72476 -16.5757 -14.0131 -3.72476 17.438
570 1 -12.551 -4.07668 -15.8824 -12.551 -4.07668 -15.8824
10909 1 -10.6674 -4.23273 -15.3227 23.3463 -4.23273 18.691
3495 1 -8.84921 -2.66702 -16.4112 -8.84921 -2.66702 17.6025
14187 1 -9.60278 -4.09406 -16.6421 24.4109 -4.09406 -16.6421
11629 1 -1.39398 -0.156043 -2.33772 -1.39398 -0.156043 -2.33772
762 1 -6.05317 -4.10186 -16.5162 -6.05317 -4.10186 -16.5162
1788 1 -4.73953 -4.11296 -16.7673 -4.73953 -38.1267 -16.7673
2026 1 -4.34278 -2.88696 -15.9107 -4.34278 -36.9007 -15.9107
11231 1 -3.38459 -4.27256 -16.2586 -3.38459 -4.27256 17.7551
10407 1 -2.4416 -2.65114 -15.833 -2.4416 -2.65114 -15.833
11415 1 -8.63025 -5.06455 -16.8056 25.3835 -5.06455 17.2081
14708 1 -1.17235 -16.8672 -14.0634 -1.17235 17.1466 19.9503
15754 1 -13.9494 -2.90162 -15.859 20.0643 -2.90162 18.1547
2366 1 -14.4043 -1.62239 -16.3597 -14.4043 -1.62239 17.654
16350 1 -15.365 -2.41804 -16.8322 18.6487 -2.41804 17.1815
4250 1 -6.37734 -0.152164 -1.19133 -6.37734 -0.152164 -1.19133
2906 1 -11.8196 -3.11652 -16.251 -11.8196 -3.11652 17.7627
5524 1 -12.0246 -1.74814 -16.4737 -12.0246 -1.74814 -16.4737
15042 1 -10.5254 -2.85591 -16.1591 23.4883 -2.85591 17.8546
1279 1 -9.45649 -2.24245 -15.1143 -9.45649 -2.24245 -15.1143
12283 1 -0.0509608 -7.448 -12.6594 -0.0509608 -7.448 21.3543
1487 1 -7.52112 -2.25018 -16.4351 -7.52112 -2.25018 -16.4351
12090 1 -6.135 -2.16017 -16.0479 27.8787 -2.16017 17.9658
7492 1 -4.99539 -1.50921 -15.7339 -4.99539 -1.50921 18.2798
12024 1 -2.69642 -1.68478 -15.6037 -2.69642 -1.68478 18.41
6232 1 -16.8254 -5.414 -10.3747 17.1883 -5.414 23.6391
9082 1 -1.50648 -3.29756 -16.3712 -1.50648 -3.29756 -16.3712
13045 1 -1.54449 -16.54 -0.820788 -1.54449 17.4737 -0.820788
953 1 -0.770843 -1.92821 -16.4961 -0.770843 -1.92821 -16.4961
5315 1 -15.9419 -1.47052 -16.3702 -15.9419 -1.47052 -16.3702
8724 1 -5.90195 -16.7271 -4.84435 28.1118 -16.7271 -4.84435
10583 1 -13.3967 -1.13142 -15.6848 20.617 -1.13142 -15.6848
8427 1 -12.5515 -0.384983 -16.3037 21.4622 -0.384983 -16.3037
9241 1 -0.150863 -1.83813 -13.2534 -0.150863 -1.83813 -13.2534
2291 1 -11.4512 -0.106828 -16.385 -11.4512 -0.106828 17.6287
4900 1 -16.5082 -9.70017 -2.6513 -16.5082 -9.70017 -2.6513
13268 1 -9.62496 -1.22997 -15.9256 -9.62496 -1.22997 -15.9256
7006 1 -8.23896 -0.875533 -16.2969 -8.23896 -0.875533 17.7168
14550 1 -6.93629 -0.302529 -16.1578 -6.93629 -0.302529 17.8559
13096 1 -4.6042 -0.702759 -16.7397 -4.6042 -0.702759 -16.7397
6799 1 -5.3871 -0.463716 -15.5687 -5.3871 -0.463716 18.445
4676 1 -3.33283 -0.429095 -16.9681 -3.33283 -0.429095 -16.9681
4790 1 -2.75194 -0.509579 -15.7359 -2.75194 -0.509579 -15.7359
12294 1 -1.71915 -1.0095 -16.1843 -1.71915 -1.0095 17.8294
12354 1 -15.1868 -13.1421 -0.0883335 18.8269 -13.1421 -0.0883335
8483 1 -16.9718 -13.2698 -2.98504 17.0419 -13.2698 -2.98504
634 1 -15.7147 -16.6448 -13.9787 18.299 -16.6448 -13.9787
13461 1 -0.121304 -11.785 -0.548157 -0.121304 22.2287 -0.548157
12326 1 -15.1406 -16.1405 -14.8961 18.8732 -16.1405 19.1176
6256 1 -13.8648 -16.071 -15.1904 -13.8648 17.9427 18.8234
12377 1 -12.9911 -16.8544 -15.2058 21.0226 17.1593 -15.2058
13193 1 -13.5505 -16.0485 -14.1887 20.4632 17.9652 -14.1887
6369 1 -12.1032 -16.5002 -14.4332 -12.1032 17.5135 19.5806
5767 1 -10.3989 -15.9524 -15.7974 -10.3989 18.0613 -15.7974
13132 1 -0.650815 -15.7094 -4.66385 -0.650815 -15.7094 -4.66385
1970 1 -7.34877 -16.2537 -14.4789 -7.34877 -16.2537 -14.4789
14307 1 -6.37652 -16.089 -15.1766 27.6372 17.9247 -15.1766
13151 1 -3.55604 -16.5309 -14.616 -3.55604 17.4828 -14.616
804 1 -1.68344 -16.4944 -14.9896 -1.68344 -16.4944 -14.9896
9996 1 -0.0717788 -16.066 -14.7949 33.9419 -16.066 -14.7949
15926 1 -16.4243 -15.1108 -15.377 17.5894 18.903 18.6367
7981 1 -15.0851 -14.8636 -14.7448 -15.0851 19.1501 19.2689
8786 1 -13.5638 -14.9687 -15.1978 20.4499 -14.9687 -15.1978
6463 1 -12.1146 -15.1677 -15.0344 -12.1146 18.846 18.9793
14619 1 -11.4542 -14.2551 -14.7036 22.5595 19.7586 -14.7036
9994 1 -10.9932 -15.4223 -14.3827 23.0205 -15.4223 -14.3827
4829 1 -10.5452 -14.7818 -15.6624 -10.5452 19.2319 -15.6624
2162 1 -8.92828 -14.7935 -14.6935 -8.92828 -14.7935 19.3202
1281 1 -8.19769 -13.6059 -15.3674 -8.19769 -13.6059 -15.3674
9102 1 -7.67426 -14.9475 -14.7706 -7.67426 -14.9475 -14.7706
12118 1 -4.80009 -15.1737 -14.9311 -4.80009 -15.1737 -14.9311
1339 1 -6.16708 -14.91 -14.8602 -6.16708 -14.91 -14.8602
8838 1 -3.05853 -15.651 -13.867 -3.05853 -15.651 -13.867
15558 1 -1.96029 -15.1327 -13.9761 -1.96029 18.8811 20.0376
10084 1 -1.48569 -14.2702 -14.5311 -1.48569 -14.2702 -14.5311
4580 1 -15.2039 -9.46028 -0.725596 -15.2039 -9.46028 -0.725596
7800 1 -14.6334 -13.3599 -14.6491 -14.6334 20.6538 19.3646
2238 1 -12.7582 -13.5358 -14.9117 -12.7582 -13.5358 19.102
7751 1 -9.91642 -14.16 -14.7849 -9.91642 19.8537 19.2288
12676 1 -11.0526 -12.9468 -15.4338 22.9611 21.0669 -15.4338
14809 1 -8.98664 -12.717 -15.4035 -8.98664 -12.717 -15.4035
5482 1 -6.91633 -13.7127 -14.9072 -6.91633 20.301 -14.9072
13970 1 -5.03921 -12.712 -16.0152 -5.03921 -12.712 -16.0152
5291 1 -4.36368 -14.0588 -15.2273 -4.36368 19.9549 -15.2273
839 1 -4.0485 -12.8096 -14.5885 -4.0485 -12.8096 -14.5885
7564 1 -2.11931 -13.2878 -14.9584 -2.11931 20.7259 19.0553
5707 1 -0.818259 -13.419 -15.2574 -0.818259 20.5947 -15.2574
9239 1 -16.0339 -12.8671 -14.6858 17.9798 21.1466 -14.6858
736 1 -13.6527 -12.7624 -15.0464 -13.6527 -12.7624 -15.0464
4146 1 -12.8569 -11.898 -15.2281 -12.8569 22.1158 -15.2281
6711 1 -12.0229 -13.144 -14.1269 -12.0229 20.8697 19.8868
1663 1 -10.6475 -12.1964 -14.5237 -10.6475 -12.1964 -14.5237
8774 1 -8.66351 -11.5781 -14.7856 -8.66351 -11.5781 -14.7856
12072 1 -9.61792 -12.8159 -14.54 24.3958 -12.8159 19.4737
12208 1 -7.38827 -12.4232 -15.9739 26.6254 -12.4232 18.0398
312 1 -7.81267 -12.3946 -14.4974 -7.81267 -12.3946 19.5163
1048 1 -6.17874 -12.9857 -15.7601 -6.17874 -12.9857 -15.7601
3906 1 -5.94381 -11.8232 -15.5914 -5.94381 -11.8232 18.4223
602 1 -5.60153 -10.5987 -13.9583 -5.60153 -10.5987 -13.9583
8214 1 -3.74964 -11.4317 -14.5307 -3.74964 22.582 19.483
516 1 -1.66914 -12.0382 -14.6024 -1.66914 -12.0382 -14.6024
730 1 -15.851 -10.3892 -15.755 -15.851 -10.3892 -15.755
508 1 -15.9694 -9.36814 -15.359 -15.9694 -9.36814 18.6547
888 1 -14.593 -11.3755 -15.8392 -14.593 -11.3755 -15.8392
10243 1 -14.2629 -10.3309 -14.2783 -14.2629 -10.3309 -14.2783
12058 1 -14.4815 -9.91346 -15.4469 19.5323 -9.91346 18.5668
8965 1 -12.2478 -10.3108 -14.9207 21.7659 -10.3108 -14.9207
11950 1 -11.6175 -11.8372 -15.7538 22.3962 -11.8372 18.2599
10702 1 -11.0509 -10.4763 -15.395 -11.0509 -10.4763 18.6188
150 1 -9.98672 -10.9478 -14.3509 -9.98672 -10.9478 -14.3509
6141 1 -7.92461 -10.4824 -15.8922 -7.92461 23.5313 18.1215
5116 1 -6.04351 -10.4966 -15.317 -6.04351 -10.4966 -15.317
4665 1 -3.32301 -10.3532 -14.5557 -3.32301 23.6605 -14.5557
9355 1 -1.20875 -11.0519 -15.0829 -1.20875 -11.0519 18.9308
13070 1 -16.8579 -7.16589 -0.182113 17.1558 -7.16589 -0.182113
11013 1 -14.8934 -8.78746 -15.0657 19.1203 -8.78746 18.948
1228 1 -12.9165 -9.20516 -14.6379 -12.9165 -9.20516 -14.6379
3263 1 -11.7592 -9.99436 -13.9116 -11.7592 -9.99436 20.1021
4269 1 -10.2487 -9.01279 -15.4928 -10.2487 -9.01279 -15.4928
4413 1 -10.7241 -9.26449 -14.0353 -10.7241 24.7492 -14.0353
8711 1 -8.87847 -9.05902 -15.3248 -8.87847 -9.05902 -15.3248
9906 1 -9.04909 -10.5444 -15.136 -9.04909 -10.5444 -15.136
15352 1 -7.90347 -9.60048 -15.3039 26.1102 -9.60048 18.7098
352 1 -8.91646 -7.99191 -14.3039 -8.91646 -7.99191 -14.3039
5756 1 -6.56445 -9.23111 -14.6224 -6.56445 24.7826 19.3913
3125 1 -5.68536 -9.32538 -15.372 -5.68536 -9.32538 18.6417
10790 1 -4.26086 -9.24538 -14.7731 -4.26086 -9.24538 19.2406
2393 1 -3.12997 -8.61594 -15.7509 -3.12997 -8.61594 -15.7509
5446 1 -2.07441 -9.92243 -14.7429 -36.0881 -9.92243 -14.7429
3082 1 -0.356131 -9.19273 -15.0209 -0.356131 -9.19273 18.9928
189 1 -15.95 -7.89811 -14.6065 -15.95 -7.89811 -14.6065
8583 1 -12.0204 -7.84419 -15.9584 -12.0204 -7.84419 -15.9584
3951 1 -13.9064 -8.11228 -15.2024 -13.9064 -8.11228 18.8113
1145 1 -12.4621 -8.05633 -14.5845 -12.4621 -8.05633 -14.5845
12124 1 -11.063 -7.70579 -15.6673 -11.063 -7.70579 -15.6673
9539 1 -8.34013 -7.00607 -13.3574 -8.34013 -7.00607 -13.3574
791 1 -10.2556 -7.91089 -14.3236 -10.2556 -7.91089 -14.3236
11112 1 -7.44267 -8.42987 -15.1311 -7.44267 -8.42987 18.8826
1012 1 -6.49443 -7.53182 -14.5214 -6.49443 -7.53182 -14.5214
13515 1 -5.21181 -7.78315 -14.6429 28.8019 -7.78315 -14.6429
461 1 -4.15754 -8.10461 -14.3564 -4.15754 -8.10461 -14.3564
350 1 -1.78506 -8.19286 -14.4848 -1.78506 -8.19286 -14.4848
8421 1 -3.17268 -7.93727 -14.8388 -3.17268 -7.93727 -14.8388
5143 1 -1.52877 -6.53225 -14.3228 -1.52877 -6.53225 -14.3228
1366 1 -16.3878 -6.79288 -15.6396 -16.3878 -6.79288 -15.6396
5891 1 -14.0098 -5.68809 -15.4338 -14.0098 -5.68809 -15.4338
2832 1 -12.767 -7.13325 -15.443 -12.767 -7.13325 18.5707
8388 1 -11.5838 -6.85689 -15.7888 -11.5838 -6.85689 -15.7888
8777 1 -11.8292 -6.26514 -14.5384 -11.8292 -6.26514 19.4753
2478 1 -10.543 -6.32341 -14.9009 -10.543 -6.32341 19.1128
10453 1 -9.08097 -6.35972 -14.7693 24.9327 -6.35972 19.2444
9939 1 -6.04475 -6.61318 -14.9967 -6.04475 -6.61318 -14.9967
7029 1 -4.97279 -7.00067 -15.3481 -4.97279 27.013 18.6656
9034 1 -3.76831 -6.50189 -14.5235 -3.76831 -6.50189 -14.5235
16127 1 -2.56985 -7.01714 -15.6514 -2.56985 -7.01714 18.3624
3114 1 -3.13798 -5.394 -15.3475 -3.13798 -5.394 -15.3475
3546 1 -15.7008 -5.17351 -15.2674 -15.7008 -5.17351 -15.2674
13312 1 -14.7054 -4.6241 -14.7005 19.3083 -4.6241 -14.7005
3649 1 -13.1763 -5.90142 -14.8551 -13.1763 -5.90142 -14.8551
5221 1 -11.8624 -4.86524 -15.3686 -11.8624 29.1485 18.6451
11087 1 -13.2025 -4.245 -14.9878 -13.2025 -4.245 19.0259
11830 1 -10.2701 -4.86526 -14.6189 23.7437 -4.86526 19.3948
11751 1 -8.54766 -5.11102 -14.6891 25.4661 -5.11102 19.3246
13514 1 -6.92939 -5.41425 -14.6888 -6.92939 -5.41425 -14.6888
10875 1 -8.22764 -3.42076 -15.9388 25.7861 -3.42076 18.0749
5974 1 -7.82555 -4.27218 -14.4971 -7.82555 -4.27218 -14.4971
11257 1 -4.8608 -4.80088 -14.745 -4.8608 -4.80088 19.2687
14071 1 -6.00218 -4.54948 -15.4324 -6.00218 29.4642 -15.4324
5089 1 -3.45847 -3.42243 -14.8345 -3.45847 -3.42243 -14.8345
1606 1 -1.9181 -4.93327 -15.2705 -1.9181 -4.93327 -15.2705
6601 1 -0.675846 -4.44718 -15.131 -0.675846 -4.44718 18.8827
16163 1 -15.9564 -3.76331 -15.4335 18.0574 -3.76331 18.5802
13684 1 -14.3224 -3.43958 -14.7073 19.6913 -3.43958 -14.7073
7698 1 -11.7771 -3.88018 -14.7393 -11.7771 -3.88018 19.2744
7782 1 -9.66904 -3.56721 -15.0596 -9.66904 -3.56721 18.9541
3147 1 -7.3297 -2.45 -15.1894 -7.3297 -2.45 18.8243
8459 1 -6.73464 -3.60511 -15.4116 -6.73464 -3.60511 -15.4116
8515 1 -5.15804 -3.43789 -15.1322 28.8557 -3.43789 -15.1322
9145 1 -4.35471 -4.09897 -15.2762 -4.35471 -4.09897 -15.2762
7710 1 -2.00796 -3.56716 -14.8099 -2.00796 -3.56716 19.2038
554 1 -16.0731 -2.63349 -14.2926 -16.0731 -2.63349 -14.2926
1383 1 -15.4501 -2.23329 -15.3429 -15.4501 -2.23329 -15.3429
5131 1 -12.9382 -2.62338 -15.3882 -12.9382 -2.62338 -15.3882
5076 1 -14.6534 -2.48052 -14.0991 -14.6534 31.5332 -14.0991
9365 1 -13.3963 -1.22907 -14.29 -13.3963 -1.22907 -14.29
8736 1 -12.426 -1.96102 -14.5418 21.5877 -1.96102 -14.5418
13232 1 -11.0571 -1.84768 -14.5394 22.9567 -1.84768 -14.5394
3855 1 -9.88444 -3.06743 -13.6076 -9.88444 -3.06743 20.4061
1336 1 -10.2107 -1.61012 -13.7972 -10.2107 -1.61012 -13.7972
9624 1 -8.31971 -2.39932 -14.6228 25.694 -2.39932 -14.6228
14411 1 -7.37482 -1.40102 -14.4346 -7.37482 -1.40102 19.5792
3805 1 -9.1245 -1.37168 -14.443 -9.1245 -1.37168 19.5708
8871 1 -6.12202 -2.45895 -14.7192 27.8917 -2.45895 -14.7192
3286 1 -5.06984 -1.84267 -14.6968 -5.06984 -1.84267 -14.6968
3839 1 -3.94603 -2.22919 -15.0058 -3.94603 -2.22919 19.0079
1472 1 -1.71795 -2.09173 -15.0187 -1.71795 -2.09173 -15.0187
14299 1 -1.25783 -2.67918 -14.0471 -1.25783 -2.67918 -14.0471
9149 1 -16.5269 -1.42473 -15.1814 17.4868 -1.42473 -15.1814
12753 1 -15.2786 -0.252943 -14.5651 18.7351 -0.252943 -14.5651
12538 1 -14.2094 -0.213166 -15.1674 19.8043 -0.213166 -15.1674
12986 1 -11.9816 -1.18747 -15.4826 -11.9816 -1.18747 -15.4826
5678 1 -10.8715 -0.788259 -14.946 -10.8715 -0.788259 -14.946
6925 1 -9.66369 -0.603506 -15.0504 -9.66369 33.4102 18.9633
2560 1 -5.33567 -3.11758 -16.8744 -5.33567 -3.11758 17.1393
3049 1 -16.7958 -6.36961 -1.03658 -16.7958 -6.36961 -1.03658
9361 1 -6.37767 -1.31835 -14.7544 -6.37767 -1.31835 -14.7544
11885 1 -1.45566 -3.19537 -0.374518 -1.45566 -3.19537 -0.374518
3835 1 -3.94262 -0.79679 -15.5859 -3.94262 -0.79679 18.4278
10391 1 -0.575194 -1.25768 -15.2307 -0.575194 -1.25768 -15.2307
2980 1 -1.35605 -0.606869 -14.464 -1.35605 -0.606869 -14.464
4859 1 -16.5725 -15.4561 -14.1182 -16.5725 18.5576 -14.1182
6660 1 -16.7586 -16.8376 -13.1722 -16.7586 17.1761 20.8416
4322 1 -15.8337 -15.6677 -13.0724 -15.8337 18.346 -13.0724
1625 1 -14.6855 -15.9693 -13.1937 -14.6855 -15.9693 -13.1937
9138 1 -0.52127 -4.18764 -0.0339964 -0.52127 -4.18764 -0.0339964
1193 1 -10.3918 -15.3552 -13.121 -10.3918 -15.3552 -13.121
2690 1 -9.04172 -16.2851 -13.056 -9.04172 -16.2851 20.9577
2298 1 -8.25064 -16.7757 -14.6603 -8.25064 -16.7757 19.3534
7613 1 -9.74982 -16.1195 -14.5216 -9.74982 17.8942 19.4921
6420 1 -8.32344 -15.1956 -13.4223 -8.32344 18.8181 20.5914
4527 1 -16.6663 -16.1618 -1.71869 -16.6663 -16.1618 -1.71869
11513 1 -4.78113 -16.0051 -14.2121 -4.78113 -16.0051 19.8016
6016 1 -3.70276 -16.4136 -12.9554 -3.70276 -16.4136 -12.9554
6969 1 -2.35612 -16.5701 -13.219 -2.35612 17.4436 20.7947
10250 1 -15.4508 -14.9801 -13.7032 18.563 -14.9801 -13.7032
1514 1 -13.9197 -14.7246 -14.1613 -13.9197 -14.7246 -14.1613
2648 1 -12.9613 -15.2406 -13.0024 -12.9613 -15.2406 21.0113
8535 1 -11.7372 -15.2925 -13.2918 -11.7372 -15.2925 -13.2918
4321 1 -10.1301 -14.348 -12.4513 -10.1301 -14.348 -12.4513
15998 1 -5.94939 -15.6916 -13.506 -5.94939 -15.6916 20.5077
5518 1 -6.6591 -14.6525 -13.4295 -6.6591 19.3612 -13.4295
321 1 -4.9297 -15.1502 -13.5438 -4.9297 -15.1502 -13.5438
11359 1 -2.75695 -13.353 -13.8394 -2.75695 -13.353 20.1743
13801 1 -3.64468 -14.7706 -13.0387 -3.64468 19.2431 -13.0387
5413 1 -2.57773 -14.5774 -13.0281 -2.57773 19.4363 -13.0281
1229 1 -0.977614 -15.7606 -13.9228 -0.977614 -15.7606 -13.9228
10628 1 -0.993021 -14.5191 -13.4238 -0.993021 -14.5191 20.5899
3103 1 -15.8101 -12.631 -13.3483 -15.8101 -12.631 20.6654
8192 1 -16.4323 -14.0515 -13.5516 -16.4323 19.9622 20.4621
16266 1 -14.7578 -13.9016 -13.3302 19.2559 20.1121 -13.3302
921 1 -14.028 -12.7016 -12.848 -14.028 -12.7016 -12.848
1414 1 -13.6377 -13.4246 -13.8271 -13.6377 -13.4246 -13.8271
2933 1 -12.7291 -14.2211 -13.2224 -12.7291 -14.2211 20.7913
12886 1 -11.2487 -14.102 -12.8522 -11.2487 19.9118 -12.8522
7956 1 -10.7952 -12.57 -13.1983 -10.7952 21.4437 -13.1983
7688 1 -9.52578 -13.3029 -13.4425 -9.52578 -13.3029 20.5712
3745 1 -8.55659 -13.7462 -14.4413 -8.55659 -13.7462 19.5724
82 1 -7.61304 -13.5547 -13.7176 -7.61304 -13.5547 -13.7176
11234 1 -5.44328 -13.7932 -15.0739 -5.44328 -13.7932 18.9398
12550 1 -4.1714 -12.8721 -13.3917 -4.1714 -12.8721 -13.3917
5235 1 -6.23733 -13.5438 -13.4653 -6.23733 -13.5438 -13.4653
3882 1 -3.08974 -13.4211 -12.5033 -3.08974 -13.4211 -12.5033
5612 1 -1.84175 -13.5094 -12.5687 -1.84175 20.5043 -12.5687
254 1 -0.835934 -13.3082 -13.934 -0.835934 -13.3082 -13.934
4276 1 -16.0425 -11.4517 -13.9403 -16.0425 22.562 -13.9403
1603 1 -14.7194 -11.8185 -14.168 -14.7194 -11.8185 -14.168
4814 1 -12.7857 -11.7136 -13.881 -12.7857 22.3001 -13.881
10385 1 -12.3417 -11.6578 -12.7343 21.672 -11.6578 -12.7343
8960 1 -9.06238 -11.3254 -13.0479 24.9513 -11.3254 -13.0479
3070 1 -7.43388 -12.7746 -12.8538 -7.43388 -12.7746 21.16
4030 1 -6.54119 -11.8642 -14.1632 -6.54119 -11.8642 19.8505
7289 1 -6.13651 -13.1015 -12.2749 -6.13651 20.9122 21.7388
12295 1 -5.44548 -12.6457 -14.7457 -5.44548 -12.6457 19.268
10853 1 -5.48608 -12.3822 -13.4633 -5.48608 -12.3822 -13.4633
12783 1 -3.09616 -12.2837 -13.7459 -3.09616 21.73 -13.7459
8889 1 -1.56759 -12.6326 -13.2551 -1.56759 -12.6326 -13.2551
7166 1 -0.676156 -12.5459 -12.5626 -34.6899 21.4678 21.4511
1868 1 -16.0421 -10.4619 -14.3229 -16.0421 -10.4619 -14.3229
228 1 -15.4017 -11.7991 -15.2269 -15.4017 -11.7991 -15.2269
4923 1 -14.9897 -10.2314 -13.2867 -14.9897 23.7823 -13.2867
14050 1 -12.7201 -10.286 -13.3626 21.2936 23.7277 20.6511
8527 1 -11.3045 -11.3757 -13.4167 22.7092 -11.3757 -13.4167
9636 1 -10.3366 -9.96684 -13.0059 -10.3366 -9.96684 -13.0059
3604 1 -8.79751 -10.3651 -13.9004 -8.79751 -10.3651 20.1133
13170 1 -7.81899 -9.97199 -13.8734 -7.81899 24.0417 -13.8734
1798 1 -7.7774 -11.2794 -13.7265 -7.7774 -11.2794 -13.7265
15986 1 -6.01206 -11.3665 -13.1293 -6.01206 -11.3665 20.8844
6318 1 -5.09873 -9.62199 -13.736 -5.09873 -9.62199 20.2777
6512 1 -4.39513 -10.8139 -13.308 -4.39513 23.1998 20.7057
8542 1 -3.1238 -10.6077 -13.1435 -3.1238 -10.6077 -13.1435
10615 1 -2.45236 -11.1905 -13.9226 -2.45236 -11.1905 20.0911
10844 1 -0.531332 -11.6851 -14.3033 -0.531332 -11.6851 19.7104
3355 1 -1.1656 -9.86282 -14.098 -1.1656 -9.86282 19.9157
16370 1 -1.36834 -11.4378 -12.4274 -1.36834 22.5759 21.5863
9819 1 -16.6398 -8.56404 -14.032 17.3739 -8.56404 -14.032
13987 1 -14.9186 -9.10776 -12.5217 19.0951 -9.10776 -12.5217
5086 1 -14.6169 -8.39097 -14.0261 -14.6169 25.6227 19.9876
14101 1 -11.07 -10.3436 -11.6892 -11.07 23.6701 -11.6892
3748 1 -10.6866 -8.82246 -12.5429 -10.6866 -8.82246 21.4708
12785 1 -9.54038 -9.33219 -14.4194 -9.54038 -9.33219 -14.4194
1676 1 -9.6457 -7.57842 -12.8446 -9.6457 -7.57842 -12.8446
2022 1 -8.10947 -8.73713 -12.9726 -8.10947 -8.73713 -12.9726
3645 1 -6.73197 -10.0235 -13.621 -6.73197 -10.0235 20.3927
7878 1 -5.62222 -8.50993 -13.7903 -5.62222 25.5038 20.2235
1831 1 -2.98524 -9.55028 -13.7536 -2.98524 -9.55028 -13.7536
2121 1 -1.99241 -9.81978 -13.2916 -1.99241 -9.81978 -13.2916
4474 1 -1.13324 -8.55369 -12.5676 -1.13324 25.46 -12.5676
8937 1 -11.3629 -11.2202 -16.6789 22.6508 -11.2202 -16.6789
15695 1 -15.313 -7.392 -13.6131 18.7007 26.6217 20.4006
7447 1 -14.0638 -7.07992 -14.1431 -14.0638 -7.07992 19.8706
4316 1 -13.4693 -9.22585 -13.6618 -13.4693 24.7879 -13.6618
2381 1 -12.9373 -6.93486 -13.6522 -12.9373 -6.93486 20.3615
1710 1 -11.4148 -8.24312 -14.0199 -11.4148 -8.24312 -14.0199
15720 1 -12.1685 -7.69778 -12.8419 21.8452 -7.69778 21.1718
320 1 -7.24372 -8.1402 -13.8061 -7.24372 -8.1402 -13.8061
11915 1 -5.7505 -7.2187 -13.4748 -5.7505 -7.2187 20.5389
2075 1 -4.42494 -7.76029 -13.443 -4.42494 -7.76029 20.5707
9916 1 -2.73908 -7.71364 -12.9498 -2.73908 -7.71364 -12.9498
9990 1 -1.48919 -7.80046 -13.4682 -1.48919 -7.80046 -13.4682
8968 1 -0.682362 -8.27589 -13.9674 -0.682362 -8.27589 -13.9674
1065 1 -0.451717 -13.0617 -16.6773 -0.451717 -13.0617 -16.6773
4941 1 -0.0691355 -6.99066 -14.8471 -0.0691355 27.0231 -14.8471
14547 1 -15.7983 -6.04571 -13.2484 18.2154 -6.04571 20.7653
224 1 -14.8807 -5.88025 -14.4792 -14.8807 -5.88025 -14.4792
5627 1 -16.0659 -6.44865 -14.5738 -16.0659 -6.44865 -14.5738
12483 1 -9.60862 -5.43992 -13.9908 -9.60862 -5.43992 -13.9908
845 1 -11.1385 -6.75083 -13.4618 -11.1385 -6.75083 -13.4618
1593 1 -8.70241 -6.57775 -12.231 -8.70241 -6.57775 -12.231
9089 1 -9.81444 -6.92597 -13.6696 -9.81444 -6.92597 -13.6696
8225 1 -8.21882 -5.71564 -13.3748 -8.21882 -5.71564 -13.3748
7035 1 -7.24845 -6.63878 -14.2433 -7.24845 27.3749 19.7705
8390 1 -6.38889 -5.84676 -13.5248 -6.38889 -5.84676 -13.5248
5203 1 -4.37586 -6.25202 -13.3631 -38.3896 -6.25202 -13.3631
8384 1 -5.70151 -5.40164 -14.5911 -5.70151 -5.40164 -14.5911
7702 1 -2.96884 -6.10903 -12.7054 -2.96884 -6.10903 21.3083
14414 1 -2.72463 -6.81513 -13.9589 -2.72463 -6.81513 20.0548
1677 1 -1.96702 -5.37971 -13.833 -1.96702 -5.37971 -13.833
1248 1 -0.274958 -6.22921 -13.7532 -0.274958 -6.22921 -13.7532
6725 1 -13.4492 -5.57756 -13.9292 -13.4492 -5.57756 20.0845
4753 1 -11.0861 -5.14638 -13.83 -11.0861 -5.14638 -13.83
10506 1 -9.00878 -4.50356 -13.6942 25.0049 -4.50356 20.3195
9544 1 -6.27989 -4.3112 -13.2413 -6.27989 -4.3112 -13.2413
8984 1 -5.12885 -5.1608 -13.3315 -5.12885 -5.1608 -13.3315
3078 1 -4.83981 -3.99526 -12.8193 -4.83981 -3.99526 -12.8193
476 1 -3.71307 -5.32024 -13.865 -3.71307 -5.32024 -13.865
5230 1 -1.8043 -4.29878 -14.0255 -1.8043 -4.29878 -14.0255
4062 1 -0.00901561 -5.05027 -12.8356 -0.00901561 -5.05027 -12.8356
9620 1 -16.062 -3.95381 -14.1945 17.9517 -3.95381 -14.1945
9666 1 -15.5209 -2.95432 -13.0512 18.4928 -2.95432 -13.0512
1110 1 -14.8163 -4.11136 -12.413 -14.8163 -4.11136 -12.413
4904 1 -14.3464 -4.01297 -13.595 -14.3464 -4.01297 -13.595
1527 1 -11.9956 -3.74511 -12.7455 -11.9956 -3.74511 -12.7455
3574 1 -13.3677 -2.86692 -14.0399 -13.3677 -2.86692 19.9739
5332 1 -12.4704 -3.60111 -14.054 -12.4704 -3.60111 19.9597
4849 1 -10.8903 -3.6505 -13.9648 -10.8903 30.3632 20.0489
622 1 -9.98254 -3.93595 -13.0164 -9.98254 -3.93595 -13.0164
5352 1 -8.30937 -2.72952 -13.2759 -8.30937 -2.72952 -13.2759
5220 1 -7.6539 -3.23146 -13.9704 -7.6539 -3.23146 -13.9704
5087 1 -7.52333 -4.81399 -13.2019 -7.52333 -4.81399 -13.2019
10130 1 -7.05145 -3.28345 -13.1821 26.9623 -3.28345 -13.1821
1741 1 -5.41639 -4.13465 -14.1564 -5.41639 -38.1484 -14.1564
4263 1 -4.80612 -2.53158 -13.6967 -4.80612 -2.53158 -13.6967
4386 1 -3.51652 -3.30588 -13.6619 -3.51652 -3.30588 -13.6619
5317 1 -2.34263 -3.43063 -13.1235 -2.34263 -3.43063 -13.1235
8322 1 -1.8055 -5.17982 -12.7703 -1.8055 -5.17982 -12.7703
15544 1 -0.599438 -4.03942 -13.8125 -0.599438 -4.03942 20.2012
7197 1 -15.4493 -1.69832 -13.1852 -15.4493 -1.69832 20.8286
9079 1 -14.786 -1.17361 -13.7768 19.2278 -1.17361 -13.7768
233 1 -13.3104 -1.98278 -12.8803 -13.3104 -1.98278 -12.8803
4403 1 -12.2928 -2.31675 -13.3712 -12.2928 -2.31675 -13.3712
14073 1 -10.5959 -2.44879 -13.0712 -10.5959 -2.44879 -13.0712
7404 1 -9.2701 -1.86728 -13.0287 -9.2701 -1.86728 20.985
676 1 -7.87493 -1.818 -12.6623 -7.87493 -1.818 -12.6623
1878 1 -6.43275 -2.25168 -13.3258 -6.43275 -2.25168 -13.3258
3095 1 -4.31092 -1.5943 -12.5119 -4.31092 -1.5943 21.5018
1679 1 -2.13469 -1.57871 -13.4553 -2.13469 -1.57871 -13.4553
13619 1 -15.9138 -14.6922 -0.208121 18.0999 -14.6922 -0.208121
10727 1 -15.3363 -10.5663 -0.0975014 18.6774 -10.5663 -0.0975014
9956 1 -0.154214 -10.0286 -3.00658 -0.154214 -10.0286 -3.00658
14911 1 -12.5233 -0.906089 -13.0574 21.4904 -0.906089 20.9563
14786 1 -10.8851 -0.431583 -13.8437 23.1286 -0.431583 20.17
1697 1 -8.22444 -0.831246 -13.7264 -8.22444 -0.831246 -13.7264