ITEM: TIMESTEP
500
ITEM: NUMBER OF ATOMS
16384
ITEM: BOX BOUNDS pp pp pp
-1.7006855707231768e+01 1.7006855707231768e+01
-1.7006855707231768e+01 1.7006855707231768e+01
-1.7006855707231768e+01 1.7006855707231768e+01
ITEM: ATOMS id type x y z xu yu zu
11628 1 -15.9438 -15.5406 -16.7111 18.07 -15.5406 17.3026
8009 1 -16.9418 -6.75483 -10.2813 -16.9418 -6.75483 23.7324
8923 1 -12.7493 -15.7584 -15.6628 -12.7493 -15.7584 -15.6628
8665 1 -16.8882 -6.1476 -1.22984 17.1255 -40.1613 -1.22984
4438 1 -10.9853 -16.7693 -16.3432 -10.9853 17.2444 -16.3432
9894 1 -6.57785 -16.3822 -7.98676 -6.57785 -16.3822 -7.98676
4519 1 -7.78492 -16.3693 -16.4627 -7.78492 17.6445 -16.4627
7718 1 -6.52841 -15.8849 -16.4594 -6.52841 18.1288 17.5543
11359 1 -4.22664 -15.9495 -16.4807 -4.22664 -15.9495 17.533
1461 1 -3.5955 -16.4107 -15.5575 -3.5955 -16.4107 -15.5575
1661 1 -1.85112 -15.94 -16.791 -1.85112 -15.94 -16.791
10492 1 -0.517549 -16.5797 -16.1655 -0.517549 -16.5797 17.8482
16266 1 -14.9702 -14.6277 -15.1966 19.0435 19.386 -15.1966
6866 1 -14.4638 -15.7864 -16.2201 -14.4638 18.2274 17.7936
2939 1 -13.6615 -14.1882 -16.8423 -13.6615 -14.1882 17.1714
13995 1 -11.9941 -15.2189 -16.347 -11.9941 18.7948 -16.347
4814 1 -12.9276 -14.2417 -15.6971 -12.9276 19.772 -15.6971
9994 1 -10.5262 -15.6336 -16.0669 23.4875 -15.6336 -16.0669
12208 1 -10.4417 -14.2754 -15.8753 23.572 -14.2754 18.1384
2162 1 -8.5554 -15.2898 -16.5087 -8.5554 -15.2898 17.5051
3010 1 -7.88002 -14.6383 -15.6346 -7.88002 -14.6383 18.3791
12118 1 -6.45077 -14.7487 -16.4419 -6.45077 -14.7487 -16.4419
7864 1 -5.05393 -14.9623 -15.9439 -5.05393 19.0514 18.0698
910 1 -4.04393 -14.6417 -15.7618 -4.04393 -14.6417 -15.7618
8838 1 -3.02643 -14.9316 -15.2647 -3.02643 -14.9316 -15.2647
15863 1 -1.90338 -15.3397 -15.5293 -1.90338 18.674 18.4844
736 1 -16.3073 -13.0169 -15.9818 -16.3073 -13.0169 -15.9818
11682 1 -15.8968 -13.661 -16.8425 18.1169 -13.661 17.1712
10387 1 -14.972 -14.2289 -16.5358 19.0417 -14.2289 17.4779
11940 1 -14.9479 -12.5886 -16.8707 19.0658 -12.5886 17.143
2933 1 -11.4859 -13.854 -16.3143 -11.4859 -13.854 17.6994
5767 1 -9.05877 -14.1331 -16.9842 -9.05877 19.8806 -16.9842
5478 1 -9.42383 -12.7407 -16.6614 -9.42383 21.273 -16.6614
312 1 -7.93505 -13.5783 -16.3606 -7.93505 -13.5783 17.6531
13970 1 -5.69862 -13.7166 -16.0426 -5.69862 -13.7166 -16.0426
13343 1 -4.80008 -12.6164 -15.6831 -4.80008 21.3973 -15.6831
618 1 -3.25322 -12.8507 -15.5922 -3.25322 -12.8507 -15.5922
7564 1 -1.55362 -14.1743 -15.4819 -1.55362 19.8394 18.5318
10752 1 -2.60593 -13.0857 -16.4131 -2.60593 -13.0857 17.6006
5990 1 -1.11024 -12.6673 -16.6384 -1.11024 -12.6673 -16.6384
6037 1 -4.75599 -16.6963 -4.17395 -4.75599 17.3174 -4.17395
9310 1 -5.05887 -2.62832 -0.0628185 -5.05887 -2.62832 -0.0628185
2794 1 -15.5096 -11.5548 -15.6321 -15.5096 -11.5548 18.3816
3471 1 -12.6859 -12.9536 -15.5941 -12.6859 -12.9536 18.4196
8635 1 -13.4485 -11.764 -16.3329 20.5652 -11.764 -16.3329
1306 1 -11.6449 -11.4529 -15.683 -11.6449 -11.4529 -15.683
6272 1 -10.5013 -12.5437 -16.2743 -10.5013 21.47 17.7394
967 1 -15.2841 -16.9017 -2.46933 -15.2841 -16.9017 -2.46933
3604 1 -8.24022 -11.723 -15.9619 -8.24022 -11.723 18.0518
9592 1 -6.22888 -11.6702 -16.4124 -6.22888 -11.6702 -16.4124
10664 1 -5.74498 -12.6051 -16.7967 28.2687 -12.6051 17.217
11401 1 -3.8437 -12.0745 -15.939 -3.8437 -12.0745 18.0747
8542 1 -1.78165 -12.1339 -15.6524 -1.78165 -12.1339 -15.6524
6397 1 -0.0112096 -11.6578 -16.5265 -0.0112096 22.3559 17.4872
5879 1 -1.1793 0.00790736 -5.1387 -1.1793 0.00790736 -5.1387
10276 1 -15.4752 -10.5754 -16.2015 18.5385 -10.5754 -16.2015
508 1 -15.878 -9.64308 -15.4875 -15.878 -9.64308 18.5262
8351 1 -11.2799 -0.449486 -5.62121 22.7338 -34.4632 -5.62121
1433 1 -12.9592 -10.5992 -16.6634 -12.9592 -10.5992 -16.6634
1278 1 -11.8064 -9.86251 -16.2072 -11.8064 -9.86251 -16.2072
1327 1 -10.1126 -11.3141 -16.6495 -10.1126 -11.3141 -16.6495
4023 1 -9.16193 -10.9202 -16.3801 -9.16193 -10.9202 17.6336
2163 1 -8.673 -10.1655 -15.5317 -8.673 -10.1655 18.482
15352 1 -7.64981 -10.422 -16.2382 26.3639 -10.422 17.7755
271 1 -4.82238 -11.3905 -15.9619 -4.82238 -11.3905 -15.9619
8423 1 -0.820049 -16.976 -8.21998 33.1937 -16.976 -8.21998
10788 1 -2.99795 -11.1597 -16.4615 31.0158 -11.1597 17.5522
10844 1 -0.376973 -11.2261 -15.3642 -0.376973 -11.2261 18.6496
2882 1 -1.32922 -11.2477 -16.8807 -1.32922 -11.2477 17.133
11169 1 -16.2034 -0.770607 -16.777 17.8103 -0.770607 17.2368
11143 1 -15.3089 -9.05125 -16.6919 18.7048 -9.05125 17.3219
72 1 -6.39461 -16.4923 -5.71249 -6.39461 -16.4923 -5.71249
7013 1 -11.9828 -8.73242 -16.8793 -11.9828 25.2813 17.1344
8774 1 -10.1957 -9.45235 -16.7172 -10.1957 -9.45235 -16.7172
12072 1 -9.57422 -9.41121 -15.6033 24.4395 -9.41121 18.4104
2449 1 -8.81739 -8.94835 -16.2705 -8.81739 -8.94835 17.7432
3547 1 -7.75605 -8.75994 -16.1015 -7.75605 -8.75994 17.9122
3816 1 -5.29492 -9.61659 -16.0003 -5.29492 -9.61659 18.0134
1853 1 -6.07385 -8.72118 -16.6453 -6.07385 -8.72118 -16.6453
2393 1 -4.42829 -8.73232 -16.6726 -4.42829 -8.73232 -16.6726
10615 1 -3.27995 -9.70657 -16.2143 -3.27995 -9.70657 17.7994
3286 1 -4.54177 -1.14771 -13.0314 -4.54177 -1.14771 -13.0314
8581 1 -1.03395 -9.75638 -16.5717 -1.03395 -9.75638 -16.5717
11854 1 -16.607 -8.56514 -16.7414 17.4067 -8.56514 17.2724
1198 1 -15.3993 -6.9785 -16.9059 -15.3993 -6.9785 -16.9059
9864 1 -15.438 -7.95672 -15.78 -15.438 -7.95672 -15.78
10072 1 -13.7186 -7.75212 -16.9562 20.2951 -7.75212 -16.9562
1070 1 -12.241 -7.50643 -16.6237 -12.241 -7.50643 -16.6237
1657 1 -9.68942 -8.01179 -16.1926 -9.68942 -8.01179 -16.1926
702 1 -9.81531 -7.30074 -16.921 -9.81531 -7.30074 -16.921
12672 1 -8.69098 -7.12817 -16.1329 25.3227 -7.12817 -16.1329
4328 1 -6.93362 -6.43752 -16.6364 -6.93362 -6.43752 -16.6364
12459 1 -6.09118 -7.5844 -15.8493 -6.09118 26.4293 -15.8493
1321 1 -4.59816 -7.6327 -15.7677 -4.59816 -7.6327 -15.7677
9916 1 -3.2609 -7.22251 -16.3367 -3.2609 -7.22251 -16.3367
3995 1 -2.51063 -8.02907 -16.5282 -2.51063 -8.02907 17.4855
1612 1 -1.31905 -7.5326 -16.4936 -1.31905 -7.5326 -16.4936
3082 1 -0.305434 -7.33451 -15.2795 -0.305434 -7.33451 18.7342
1600 1 -12.4457 -7.53533 -0.46028 -12.4457 -7.53533 -0.46028
898 1 -15.8784 -6.50442 -15.9769 -15.8784 -6.50442 -15.9769
10912 1 -13.1595 -6.54701 -16.3953 20.8542 -6.54701 17.6184
367 1 -11.6308 -6.5651 -16.9949 -11.6308 -6.5651 -16.9949
704 1 -12.1808 -6.3912 -15.6381 -12.1808 -6.3912 -15.6381
11403 1 -6.97829 -0.182087 -5.54956 -6.97829 -34.1958 -5.54956
13232 1 -10.5891 -5.15969 -16.6155 23.4246 -5.15969 -16.6155
3592 1 -10.8606 -6.67457 -15.5625 -10.8606 -6.67457 18.4512
11335 1 -9.92312 -6.02172 -16.8155 24.0906 -6.02172 -16.8155
9281 1 -8.32172 -6.16284 -16.4062 25.692 -6.16284 -16.4062
461 1 -5.22515 -6.62218 -15.6474 -5.22515 -6.62218 -15.6474
1106 1 -6.87463 -16.8085 -4.31814 -6.87463 -16.8085 -4.31814
7878 1 -3.77951 -6.34052 -15.9987 -3.77951 27.6732 18.015
7029 1 -1.85963 -6.53678 -15.9143 -1.85963 27.4769 18.0994
5089 1 -1.41935 -5.62742 -16.3958 -1.41935 -5.62742 -16.3958
865 1 -16.0902 -4.02775 -15.3124 -16.0902 -4.02775 -15.3124
1862 1 -15.3036 -5.47081 -16.6931 -15.3036 -5.47081 -16.6931
9149 1 -15.9544 -0.50058 -12.9119 18.0593 -0.50058 -12.9119
2906 1 -13.2346 -5.10715 -16.2991 -13.2346 -5.10715 17.7146
8355 1 -1.4296 -0.503736 -10.8999 -1.4296 -0.503736 -10.8999
14117 1 -11.8977 -4.89729 -15.9673 -11.8977 -4.89729 -15.9673
13514 1 -8.84599 -5.05459 -16.312 -8.84599 -5.05459 -16.312
7782 1 -9.98115 -4.16727 -16.0764 -9.98115 -4.16727 17.9373
5974 1 -8.27685 -4.21828 -16.833 -8.27685 -4.21828 -16.833
12771 1 -7.49987 -5.10108 -15.4885 -7.49987 28.9126 -15.4885
6701 1 -4.42734 -5.03163 -16.9311 -4.42734 -5.03163 17.0827
14719 1 -2.81835 -11.3842 -0.408198 31.1954 22.6295 33.6055
6519 1 -0.920805 -4.5483 -15.8105 -0.920805 -4.5483 18.2033
2252 1 -0.189143 -4.10747 -16.9494 -0.189143 -4.10747 17.0643
9410 1 -16.4621 -3.27968 -16.498 17.5516 -3.27968 -16.498
2288 1 -15.257 -4.2198 -16.7778 -15.257 -4.2198 17.2359
15571 1 -15.2606 -3.15178 -15.7289 18.7531 -3.15178 18.2848
2832 1 -14.1849 -4.44497 -15.4964 -14.1849 -4.44497 18.5173
6725 1 -13.7442 -3.00202 -16.4664 -13.7442 -3.00202 17.5473
11830 1 -12.7303 -3.67435 -16.2549 21.2834 -3.67435 17.7588
3574 1 -11.2815 -3.07481 -15.9432 -11.2815 -3.07481 18.0705
13159 1 -6.6879 -3.32934 -16.9163 -6.6879 -3.32934 -16.9163
3839 1 -3.31946 -4.10388 -16.2555 -3.31946 -4.10388 17.7582
2560 1 -5.06006 -3.1095 -16.2379 -5.06006 -3.1095 17.7758
3813 1 -1.02788 -3.13223 -16.5194 -1.02788 -3.13223 17.4943
10407 1 -2.0081 -4.08556 -15.8562 -2.0081 -4.08556 -15.8562
15028 1 -16.732 -0.0689624 -1.13902 17.2817 -0.0689624 -1.13902
2366 1 -13.7311 -1.98029 -15.9245 -13.7311 -1.98029 18.0892
1769 1 -12.6254 -0.996936 -16.3182 -12.6254 -0.996936 -16.3182
5352 1 -11.2813 -1.95503 -16.2554 -11.2813 -1.95503 -16.2554
9624 1 -9.91705 -2.7098 -16.0234 24.0967 -2.7098 -16.0234
5131 1 -10.3732 -0.604858 -16.2645 -10.3732 -0.604858 -16.2645
6925 1 -8.7113 -2.56436 -15.9645 -8.7113 31.4494 18.0492
1279 1 -7.87615 -3.14201 -16.4509 -7.87615 -3.14201 -16.4509
6199 1 -6.34034 -0.136603 -11.9053 -6.34034 -0.136603 -11.9053
12301 1 -6.78307 -3.16547 -15.4822 -6.78307 -3.16547 18.5315
7492 1 -4.5591 -2.1416 -16.1481 -4.5591 -2.1416 17.8656
15377 1 -2.90003 -2.65781 -16.8844 31.1137 -2.65781 17.1293
3835 1 -4.00943 -1.37069 -15.708 -4.00943 -1.37069 18.3057
476 1 -2.22725 -2.66914 -15.6835 -2.22725 -2.66914 -15.6835
7710 1 -0.773947 -2.31142 -15.7615 -0.773947 -2.31142 18.2522
14886 1 -16.4038 -0.475252 -15.3197 17.6099 -0.475252 18.694
233 1 -15.3384 -1.27973 -16.554 -15.3384 -1.27973 -16.554
2701 1 -14.3479 -0.597074 -16.1375 -14.3479 -0.597074 17.8762
8694 1 -0.300005 -17.0115 -14.4596 -0.300005 -17.0115 -14.4596
11317 1 -11.4167 -0.685124 -15.4121 22.597 -0.685124 18.6016
15460 1 -5.74351 -16.9361 -12.5811 28.2702 17.0776 21.4326
2250 1 -9.28401 -1.0937 -16.8404 -9.28401 -1.0937 17.1733
13268 1 -7.6804 -0.261963 -16.5579 -7.6804 -0.261963 -16.5579
10781 1 -5.72925 -0.668091 -16.7874 -5.72925 -0.668091 17.2264
4263 1 -5.45019 -0.652459 -15.6708 -5.45019 -0.652459 -15.6708
1472 1 -1.36646 -1.25661 -15.9665 -1.36646 -1.25661 -15.9665
6672 1 -0.212886 -0.755076 -16.0899 -0.212886 -0.755076 17.9238
7981 1 -14.769 -16.3563 -15.0994 -14.769 17.6574 18.9144
2300 1 -13.3073 -16.6798 -15.0237 -13.3073 -16.6798 18.99
13193 1 -11.0824 -16.4156 -14.8626 22.9314 17.5981 -14.8626
15997 1 -9.75945 -16.6274 -15.7923 -9.75945 17.3863 18.2214
5237 1 -8.06684 -16.9908 -14.9304 -8.06684 17.0229 19.0833
15205 1 -6.64844 -17.0026 -14.9597 27.3653 17.0111 19.0541
4914 1 -5.12008 -16.4711 -15.3146 -5.12008 17.5426 -15.3146
13772 1 -0.465018 -10.4746 -8.72264 -0.465018 23.5391 -8.72264
13151 1 -2.98358 -15.7925 -14.3394 -2.98358 18.2212 -14.3394
15558 1 -2.50412 -16.4251 -15.4997 -2.50412 17.5887 18.514
10084 1 -1.99714 -16.4933 -14.496 -1.99714 -16.4933 -14.496
15673 1 -1.05558 -16.1519 -15.1101 -1.05558 17.8618 18.9036
5989 1 -16.5888 -15.2947 -15.0003 -16.5888 18.719 -15.0003
2114 1 -16.3723 -13.6204 -14.6597 -16.3723 -13.6204 19.354
1625 1 -14.3927 -15.448 -14.4594 -14.3927 -15.448 -14.4594
6463 1 -13.3067 -15.2012 -14.2275 -13.3067 18.8125 19.7863
14994 1 -11.2409 -15.343 -15.3417 22.7728 18.6707 18.672
3967 1 -12.2452 -14.3343 -14.7977 -12.2452 -14.3343 19.216
7734 1 -11.1891 -13.8484 -15.0321 -11.1891 20.1653 18.9816
7613 1 -9.43931 -15.1265 -15.47 -9.43931 18.8872 18.5437
1193 1 -10.1063 -15.5139 -14.4569 -10.1063 -15.5139 -14.4569
10048 1 -6.79229 -14.6678 -14.6251 -6.79229 -14.6678 -14.6251
15998 1 -6.06244 -15.5335 -15.1896 -6.06244 -15.5335 18.8241
1339 1 -4.11613 -15.7096 -15.0429 -4.11613 -15.7096 -15.0429
11513 1 -3.17158 -14.6003 -13.8224 -3.17158 -14.6003 20.1913
9996 1 -1.38542 -15.0843 -14.6034 32.6283 -15.0843 -14.6034
395 1 -0.151355 -14.7446 -14.0096 -0.151355 -14.7446 -14.0096
7695 1 -16.2218 -12.8863 -13.9122 -16.2218 21.1275 20.1015
8847 1 -14.6674 -13.2048 -15.1144 19.3463 -13.2048 -15.1144
1414 1 -13.7532 -13.6621 -15.6884 -13.7532 -13.6621 -15.6884
1514 1 -13.157 -13.4583 -14.0005 -13.157 -13.4583 -14.0005
12886 1 -10.0823 -13.0718 -13.8799 -10.0823 20.942 -13.8799
4829 1 -9.69419 -14.2903 -14.557 -9.69419 19.7234 -14.557
3899 1 -9.08758 -13.1661 -15.4048 -9.08758 -13.1661 18.6089
5482 1 -8.25248 -14.5845 -14.4129 -8.25248 19.4293 -14.4129
14809 1 -7.4989 -12.8633 -14.6292 -7.4989 -12.8633 -14.6292
15533 1 -6.19948 -13.2514 -14.7938 -6.19948 -13.2514 -14.7938
11234 1 -4.52855 -13.9889 -14.7585 -4.52855 -13.9889 19.2552
2128 1 -3.36452 -12.6167 -14.1724 -3.36452 -12.6167 19.8413
5486 1 -2.25185 -13.3284 -14.8059 -2.25185 20.6853 -14.8059
10478 1 -0.806016 -13.0734 -15.6539 -0.806016 -13.0734 18.3599
14050 1 -15.5135 -12.1605 -14.5355 18.5003 21.8532 19.4782
4146 1 -14.0365 -12.0944 -15.1084 -14.0365 21.9194 -15.1084
921 1 -15.14 -10.9596 -14.2878 -15.14 -10.9596 -14.2878
10243 1 -13.2995 -11.5806 -14.3882 -13.2995 -11.5806 -14.3882
11950 1 -11.7186 -12.9748 -14.8654 22.2951 -12.9748 19.1483
8960 1 -10.0656 -12.8112 -14.9994 23.9481 -12.8112 -14.9994
13199 1 -10.6771 -11.3042 -15.1356 -10.6771 22.7095 -15.1356
3531 1 -9.15325 -11.3824 -15.0939 -9.15325 -11.3824 18.9198
602 1 -7.28522 -10.8741 -14.9693 -7.28522 -10.8741 -14.9693
1795 1 -6.96763 -12.7665 -15.8716 -6.96763 -12.7665 -15.8716
3460 1 -5.61818 -11.4075 -15.259 -5.61818 -11.4075 -15.259
4030 1 -4.14015 -11.8358 -14.653 -4.14015 -11.8358 19.3608
839 1 -5.27352 -12.7493 -14.2146 -5.27352 -12.7493 -14.2146
2010 1 -1.36589 -12.7929 -14.5218 -1.36589 -12.7929 19.4919
3884 1 -2.69617 -11.8518 -14.8271 -2.69617 -11.8518 19.1866
3302 1 -16.7341 -10.7514 -15.9874 -16.7341 -10.7514 18.0263
1348 1 -14.6258 -9.98478 -15.0491 -14.6258 -9.98478 -15.0491
2569 1 -14.1103 -10.7571 -15.4285 -14.1103 -10.7571 18.5852
2868 1 -12.6931 -10.6928 -15.2768 -12.6931 -10.6928 18.7369
6731 1 -11.7512 -10.0908 -14.5129 -11.7512 23.9229 19.5008
13170 1 -9.89217 -10.629 -14.4771 -9.89217 23.3848 -14.4771
5116 1 -7.70805 -9.73603 -14.8167 -7.70805 -9.73603 -14.8167
3906 1 -6.33624 -10.1015 -15.4408 -6.33624 -10.1015 18.5729
4665 1 -4.90435 -10.593 -14.811 -4.90435 23.4207 -14.811
11063 1 -3.76715 -10.7999 -15.343 -3.76715 -10.7999 18.6707
9355 1 -1.74823 -10.4524 -16.1306 -1.74823 -10.4524 17.8831
6318 1 -2.84173 -10.8293 -14.5721 -2.84173 -10.8293 19.4416
6230 1 -0.128188 -10.7177 -14.0318 -0.128188 -10.7177 19.9819
4310 1 -15.7061 -8.71387 -15.0739 -15.7061 25.2998 -15.0739
5723 1 -13.3312 -9.78846 -14.7526 -13.3312 24.2253 -14.7526
8583 1 -13.9126 -8.72108 -15.1417 -13.9126 -8.72108 -15.1417
8965 1 -12.3009 -9.06922 -15.3425 21.7128 -9.06922 -15.3425
8072 1 -10.8092 -8.90642 -14.7572 -10.8092 25.1073 19.2565
14101 1 -9.21235 -9.5107 -14.5025 -9.21235 24.503 -14.5025
13515 1 -6.43243 -8.767 -15.1525 27.5813 -8.767 -15.1525
3125 1 -4.46736 -9.51839 -14.9711 -4.46736 -9.51839 19.0426
4474 1 -2.35667 -9.42363 -15.3525 -2.35667 24.5901 -15.3525
10790 1 -2.60794 -9.09326 -13.9612 -2.60794 -9.09326 20.0525
9990 1 -1.2838 -9.40715 -14.6468 -1.2838 -9.40715 -14.6468
1955 1 -14.453 -6.99883 -16.2064 -14.453 -6.99883 -16.2064
12128 1 -14.911 -7.73488 -14.7403 -14.911 -7.73488 -14.7403
8388 1 -12.9948 -7.20094 -15.127 -12.9948 -7.20094 -15.127
15695 1 -13.9509 -8.61111 -13.8888 20.0628 25.4026 20.125
9509 1 -12.7931 -8.22286 -15.9089 -12.7931 -8.22286 -15.9089
6218 1 -10.7351 -8.50569 -16.0952 -10.7351 25.508 17.9185
8841 1 -12.4232 -8.04703 -14.0159 21.5905 -8.04703 -14.0159
1145 1 -10.8502 -7.98172 -14.2268 -10.8502 -7.98172 -14.2268
9539 1 -8.00617 -7.89835 -15.3356 -8.00617 -7.89835 -15.3356
10702 1 -8.03221 -8.78292 -13.8838 -8.03221 -8.78292 20.13
1593 1 -5.98302 -7.07117 -14.4858 -5.98302 -7.07117 -14.4858
15403 1 -5.43478 -8.02187 -14.6789 -5.43478 -8.02187 19.3348
1831 1 -3.6473 -8.55033 -14.9302 -3.6473 -8.55033 -14.9302
320 1 -3.85581 -7.15903 -15.2624 -3.85581 -7.15903 -15.2624
350 1 -2.72952 -7.51491 -14.6519 -2.72952 -7.51491 -14.6519
3355 1 -1.21103 -8.32643 -15.6218 -1.21103 -8.32643 18.3919
11824 1 -15.6744 -6.95695 -14.855 18.3393 -6.95695 19.1587
9267 1 -14.4107 -6.03131 -14.897 19.603 -6.03131 -14.897
13964 1 -13.3201 -6.39886 -13.7633 -13.3201 -6.39886 -13.7633
8777 1 -12.1879 -6.74992 -14.6536 -12.1879 -6.74992 19.3601
8225 1 -10.6847 -6.03253 -14.4594 -10.6847 -6.03253 -14.4594
15587 1 -9.81371 -7.17675 -14.7661 24.2 -7.17675 19.2476
13013 1 -7.88987 -6.33405 -15.2168 -7.88987 27.6797 -15.2168
2169 1 -6.00604 -5.59061 -15.6292 -6.00604 -5.59061 18.3845
150 1 -7.03021 -7.35833 -15.0466 -7.03021 -7.35833 -15.0466
5203 1 -4.49092 -6.79676 -14.4486 -38.5046 -6.79676 -14.4486
8968 1 -1.70799 -6.24128 -14.5773 -1.70799 -6.24128 -14.5773
1666 1 -2.53893 -5.15402 -15.9088 -2.53893 -5.15402 -15.9088
16127 1 -0.624323 -6.19127 -15.2949 -0.624323 -6.19127 18.7188
13146 1 -16.056 -5.25073 -15.6078 17.9577 -5.25073 -15.6078
16163 1 -15.3928 -5.4505 -14.5618 18.6209 -5.4505 19.4519
5727 1 -13.3643 -5.29278 -15.1661 -13.3643 -5.29278 -15.1661
12124 1 -11.6693 -5.35575 -15.0148 -11.6693 -5.35575 -15.0148
10453 1 -9.85174 -5.53962 -15.4735 24.162 -5.53962 18.5402
9544 1 -8.42173 -4.71735 -14.826 -8.42173 -4.71735 -14.826
10875 1 -6.19448 -4.34533 -14.8749 27.8192 -4.34533 19.1388
3977 1 -4.87146 -5.4378 -15.7758 -4.87146 -5.4378 18.2379
762 1 -4.80264 -4.45789 -14.6035 -4.80264 -4.45789 -14.6035
11257 1 -2.83888 -4.80977 -14.61 -2.83888 -4.80977 19.4037
1606 1 -1.68685 -5.39816 -13.7403 -1.68685 -5.39816 -13.7403
2242 1 -0.980626 -4.6956 -14.6201 -0.980626 -4.6956 19.3936
5891 1 -15.1554 -3.73923 -14.5859 -15.1554 -3.73923 -14.5859
5221 1 -12.9813 -4.33494 -15.0093 -12.9813 29.6788 19.0044
224 1 -11.723 -3.79799 -14.7386 -11.723 -3.79799 -14.7386
4849 1 -11.0113 -4.3141 -15.6545 -11.0113 29.6996 18.3592
622 1 -9.93827 -4.44187 -14.5108 -9.93827 -4.44187 -14.5108
11751 1 -9.44021 -3.35988 -14.8584 24.5735 -3.35988 19.1553
3805 1 -8.16584 -3.76933 -15.5219 -8.16584 -3.76933 18.4918
3147 1 -6.97381 -3.02879 -14.1483 -6.97381 -3.02879 19.8654
9563 1 -6.01004 -4.53348 -16.2643 28.0037 -4.53348 -16.2643
11231 1 -4.60657 -4.01039 -15.5743 -4.60657 -4.01039 18.4395
1741 1 -3.80159 -3.92795 -14.2837 -3.80159 -37.9417 -14.2837
2026 1 -3.68878 -2.58709 -15.474 -3.68878 -36.6008 -15.474
5317 1 -2.63578 -3.54634 -14.1212 -2.63578 -3.54634 -14.1212
9082 1 -1.57721 -3.26321 -15.1125 -1.57721 -3.26321 -15.1125
554 1 -16.5513 -1.79521 -13.8785 -16.5513 -1.79521 -13.8785
15392 1 -15.6067 -2.07127 -15.0398 18.407 -2.07127 18.9739
5076 1 -14.0408 -2.99345 -15.1848 -14.0408 31.0203 -15.1848
9365 1 -14.2988 -1.74683 -15.0907 -14.2988 -1.74683 -15.0907
10268 1 -12.3002 -3.00769 -15.2471 21.7135 -3.00769 -15.2471
8736 1 -12.4828 -1.8331 -14.622 21.531 -1.8331 -14.622
7698 1 -10.9775 -2.85067 -14.7605 -10.9775 -2.85067 19.2532
5665 1 -9.76564 -1.68348 -15.3784 -9.76564 -1.68348 -15.3784
1878 1 -7.98462 -2.65771 -15.1591 -7.98462 -2.65771 -15.1591
9593 1 -8.51261 -2.70876 -13.9089 25.5011 -2.70876 -13.9089
14727 1 -6.82774 -1.61552 -13.8514 -6.82774 -1.61552 -13.8514
15391 1 -5.70278 -1.37246 -14.2666 -5.70278 -1.37246 19.7471
1788 1 -5.22271 -2.92699 -15.215 -5.22271 -36.9407 -15.215
15523 1 -2.88773 -1.77457 -14.9218 -2.88773 -1.77457 19.0919
2003 1 -1.82497 -2.16107 -14.2653 -35.8387 -2.16107 -14.2653
9079 1 -15.3929 -0.441065 -13.9581 18.6208 -0.441065 -13.9581
12538 1 -14.4605 -0.268524 -14.8169 19.5532 -0.268524 -14.8169
2291 1 -12.6337 -0.729245 -15.0818 -12.6337 -0.729245 18.9319
14073 1 -11.4512 -1.53056 -14.7128 -11.4512 -1.53056 -14.7128
5678 1 -10.1866 -0.421435 -15.0459 -10.1866 -0.421435 -15.0459
5087 1 -8.71603 -0.68336 -15.0365 -8.71603 -0.68336 -15.0365
10506 1 -8.226 -1.57779 -14.2961 25.7877 -1.57779 19.7176
8063 1 -6.48697 -0.352408 -14.1662 -6.48697 -0.352408 19.8475
8871 1 -6.83253 -1.48562 -15.3138 27.1812 -1.48562 -15.3138
13560 1 -3.14856 -0.476463 -14.8772 -3.14856 -0.476463 -14.8772
13096 1 -4.47147 -0.627381 -14.8607 -4.47147 -0.627381 -14.8607
12769 1 -1.58697 -0.889882 -14.7799 -1.58697 -0.889882 -14.7799
16152 1 -0.866988 -0.268687 -15.2707 -0.866988 -0.268687 18.743
8192 1 -16.3577 -16.5065 -13.5492 -16.3577 17.5072 20.4645
1739 1 -15.3722 -15.3374 -13.8636 -15.3722 -15.3374 -13.8636
295 1 -15.1649 -16.5152 -13.1178 -15.1649 -16.5152 -13.1178
7182 1 -14.1997 -16.5638 -13.7731 -14.1997 17.4499 20.2406
11853 1 -13.7835 -15.4741 -13.0417 20.2302 -15.4741 20.972
12377 1 -12.4417 -15.8157 -14.5659 21.572 18.198 -14.5659
7751 1 -11.7729 -15.328 -13.6806 -11.7729 18.6858 20.3331
12332 1 -12.2383 -16.4513 -13.0675 21.7754 -16.4513 20.9463
4729 1 -10.7822 -16.704 -13.4603 -10.7822 17.3097 -13.4603
7688 1 -9.81959 -15.9091 -13.428 -9.81959 -15.9091 20.5857
3221 1 -8.45397 -16.9029 -12.8947 -8.45397 -16.9029 -12.8947
273 1 -7.88463 -15.8907 -12.5684 -7.88463 -15.8907 -12.5684
1970 1 -5.97943 -16.2609 -13.4659 -5.97943 -16.2609 -13.4659
1935 1 -7.42022 -16.3094 -14.0146 -7.42022 -16.3094 -14.0146
8110 1 -4.47054 -16.2682 -13.8429 -4.47054 17.7455 20.1708
3698 1 -11.7795 -0.152603 -3.11668 -11.7795 -0.152603 -3.11668
11512 1 -1.59665 -15.7852 -13.6739 -1.59665 -15.7852 20.3398
730 1 -16.6591 -14.6438 -13.2995 -16.6591 -14.6438 -13.2995
14619 1 -14.3354 -13.9743 -13.8628 19.6784 20.0394 -13.8628
11463 1 -13.039 -14.6821 -13.0574 20.9747 -14.6821 20.9563
6711 1 -10.471 -14.3652 -13.7364 -10.471 19.6485 20.2773
12340 1 -9.06319 -15.0013 -13.6033 -9.06319 -15.0013 20.4104
1997 1 -8.75034 -16.2636 -14.0379 -8.75034 -16.2636 -14.0379
2298 1 -7.41157 -15.3178 -13.6447 -7.41157 -15.3178 20.369
4926 1 -5.3544 -15.4253 -13.6259 -5.3544 18.5885 -13.6259
856 1 -4.01077 -15.1652 -13.2612 -38.0245 -15.1652 -13.2612
8445 1 -0.74364 -15.0995 -12.9536 -0.74364 -15.0995 -12.9536
2910 1 -15.2499 -13.7315 -12.6198 -15.2499 -13.7315 21.3939
6189 1 -13.9032 -13.2711 -12.7668 -13.9032 20.7427 -12.7668
8535 1 -12.063 -14.0984 -13.5017 -12.063 -14.0984 -13.5017
416 1 -11.5798 -13.9859 -12.2097 -11.5798 -13.9859 -12.2097
1663 1 -11.4074 -12.7153 -13.6363 -11.4074 -12.7153 -13.6363
12455 1 -11.1766 -12.5428 -12.0391 -11.1766 21.471 -12.0391
352 1 -9.1682 -12.4186 -13.0839 -9.1682 -12.4186 -13.0839
4321 1 -8.83892 -13.5503 -14.0946 -8.83892 -13.5503 -14.0946
9102 1 -7.78558 -13.7749 -13.4397 -7.78558 -13.7749 -13.4397
1798 1 -6.6481 -12.9445 -13.1189 -6.6481 -12.9445 -13.1189
7289 1 -5.05546 -12.439 -13.0688 -5.05546 21.5748 20.9449
5518 1 -5.01552 -13.7267 -13.3306 -5.01552 20.287 -13.3306
5291 1 -3.52465 -13.7939 -13.3428 -3.52465 20.2198 -13.3428
6016 1 -2.13365 -14.3989 -14.1674 -2.13365 -14.3989 -14.1674
5612 1 -1.35432 -13.6113 -13.5827 -1.35432 20.4024 -13.5827
10628 1 -0.192815 -13.6779 -14.1167 -0.192815 -13.6779 19.897
3103 1 -16.384 -11.8868 -13.5773 -16.384 -11.8868 20.4364
15942 1 -14.87 -13.1405 -14.0634 19.1437 20.8732 -14.0634
305 1 -14.3498 -11.295 -13.1586 -14.3498 -11.295 -13.1586
1924 1 -12.7423 -12.5229 -13.3699 -12.7423 -12.5229 -13.3699
1868 1 -12.1371 -11.491 -14.6307 -12.1371 -11.491 -14.6307
4413 1 -10.6836 -11.5161 -13.8863 -10.6836 22.4976 -13.8863
12676 1 -8.53135 -12.4835 -14.4596 25.4824 21.5302 -14.4596
130 1 -8.99612 -11.3351 -13.7969 -8.99612 -11.3351 -13.7969
82 1 -6.06347 -11.7404 -13.6528 -6.06347 -11.7404 -13.6528
8959 1 -3.95418 -12.1073 -13.0493 -3.95418 -12.1073 -13.0493
2121 1 -1.72054 -11.5456 -14.1427 -1.72054 -11.5456 -14.1427
3882 1 -2.47494 -12.2588 -12.7222 -2.47494 -12.2588 -12.7222
12783 1 -1.31769 -12.1258 -13.0196 -1.31769 21.8879 -13.0196
5086 1 -15.825 -10.6216 -12.9235 -15.825 23.3921 21.0902
5067 1 -16.7339 -11.6235 -14.8232 -16.7339 -11.6235 -14.8232
4316 1 -14.0977 -10.2217 -13.44 -14.0977 23.792 -13.44
5597 1 -12.7935 -10.8327 -13.6231 -12.7935 23.181 -13.6231
3263 1 -10.7759 -10.1727 -13.9047 -10.7759 -10.1727 20.109
9636 1 -7.73647 -10.6899 -13.9285 -7.73647 -10.6899 -13.9285
2060 1 -6.6786 -9.80084 -13.1935 -6.6786 -9.80084 20.8202
11018 1 -4.63743 -10.0958 -13.7635 -4.63743 -10.0958 20.2502
8214 1 -4.76145 -11.1482 -13.1043 -4.76145 22.8655 20.9094
6512 1 -2.88309 -11.2351 -13.4817 -2.88309 22.7786 20.532
495 1 -2.22769 -10.2476 -13.6513 -2.22769 -10.2476 -13.6513
16370 1 -0.625739 -11.1924 -13.1477 -0.625739 22.8213 20.866
8938 1 -16.0342 -10.1671 -14.1791 17.9795 -10.1671 -14.1791
888 1 -14.7909 -8.9057 -12.2405 -14.7909 -8.9057 -12.2405
228 1 -13.6006 -9.42486 -12.7645 -13.6006 -9.42486 -12.7645
12058 1 -12.6297 -9.35887 -13.7706 21.384 -9.35887 20.2432
2381 1 -11.726 -8.92754 -14.0672 -11.726 -8.92754 19.9465
791 1 -9.38896 -8.18226 -14.4524 -9.38896 -8.18226 -14.4524
7956 1 -9.75942 -10.8506 -13.0196 -9.75942 23.1631 -13.0196
1294 1 -8.78269 -9.70056 -13.0998 -8.78269 -9.70056 -13.0998
9906 1 -6.44396 -9.27458 -14.1539 -6.44396 -9.27458 -14.1539
1012 1 -7.71058 -8.09986 -12.906 -7.71058 -8.09986 -12.906
2022 1 -5.33527 -9.18086 -13.6894 -5.33527 -9.18086 -13.6894
15036 1 -3.49651 -9.66375 -12.7652 -3.49651 -9.66375 21.2485
10137 1 -3.42604 -9.83101 -14.7954 -3.42604 -9.83101 -14.7954
9352 1 -1.06421 -10.0512 -12.4479 -1.06421 -10.0512 -12.4479
4663 1 -0.161373 -8.72446 -13.4938 -0.161373 25.2892 -13.4938
1043 1 -16.6419 -7.15841 -13.4657 17.3718 -7.15841 -13.4657
11013 1 -14.8134 -9.48537 -13.8962 19.2003 -9.48537 20.1175
2368 1 -14.7593 -7.91693 -13.1368 -14.7593 -7.91693 20.8769
912 1 -12.7379 -8.23438 -13.0465 -12.7379 -8.23438 -13.0465
9831 1 -11.3162 -7.12431 -12.8043 22.6975 -7.12431 -12.8043
1201 1 -13.0486 -7.02191 -12.9033 -13.0486 -7.02191 -12.9033
3748 1 -11.0478 -8.45353 -13.0516 -11.0478 -8.45353 20.9621
472 1 -10.256 -7.65272 -13.0709 -10.256 -7.65272 -13.0709
1676 1 -8.69058 -7.70925 -13.401 -8.69058 -7.70925 -13.401
11112 1 -6.17898 -7.27238 -13.1062 -6.17898 -7.27238 20.9075
8711 1 -7.81522 -7.51887 -14.192 -7.81522 -7.51887 -14.192
5756 1 -4.50942 -7.90383 -13.8148 -4.50942 26.1099 20.1989
8340 1 -3.65163 -8.67534 -13.3115 -3.65163 -8.67534 -13.3115
5446 1 -1.98184 -7.78552 -13.5671 -35.9956 -7.78552 -13.5671
9579 1 -0.960752 -7.44745 -14.0158 -0.960752 -7.44745 -14.0158
2761 1 -15.3907 -6.38388 -13.2207 -15.3907 -6.38388 -13.2207
12505 1 -16.8104 -5.62546 -14.5907 17.2034 28.3883 -14.5907
15720 1 -14.4559 -6.65368 -13.8237 19.5578 -6.65368 20.19
11955 1 -11.8762 -6.08728 -13.6023 -11.8762 -6.08728 20.4114
12483 1 -10.3463 -6.45916 -13.1878 -10.3463 -6.45916 -13.1878
9089 1 -9.21242 -6.38516 -14.0493 -9.21242 -6.38516 -14.0493
12149 1 -8.39031 -6.06748 -13.1254 -8.39031 -6.06748 20.8884
12043 1 -6.84376 -6.00496 -14.9331 -6.84376 -6.00496 19.0806
8390 1 -6.29541 -5.76829 -13.6984 -6.29541 -5.76829 -13.6984
14071 1 -5.17081 -5.70783 -14.287 -5.17081 28.3059 -14.287
2075 1 -4.77648 -6.85355 -13.0049 -4.77648 -6.85355 21.0088
10992 1 -3.4647 -6.7484 -13.5841 -3.4647 -6.7484 20.4296
7702 1 -3.11246 -5.61098 -13.3931 -3.11246 -5.61098 20.6207
4062 1 -0.408169 -5.7378 -13.8982 -0.408169 -5.7378 -13.8982
5143 1 -1.25024 -6.64722 -13.2081 -1.25024 -6.64722 -13.2081
9854 1 -16.2213 -4.9126 -13.4446 17.7924 -4.9126 -13.4446
2221 1 -16.4789 -6.07093 -12.5544 -16.4789 -6.07093 -12.5544
13312 1 -14.9816 -4.86785 -13.2189 19.0321 -4.86785 -13.2189
12818 1 -13.9833 -5.38127 -13.2639 20.0304 -5.38127 -13.2639
8007 1 -12.7775 -4.68016 -12.9247 -12.7775 -4.68016 21.0891
2478 1 -12.4758 -4.88993 -14.3509 -12.4758 -4.88993 19.6628
1 1 -10.9779 -5.02671 -14.0298 -10.9779 -5.02671 -14.0298
4753 1 -10.8589 -4.56935 -12.8408 -10.8589 -4.56935 -12.8408
9330 1 -9.07507 -5.32104 -13.8 24.9386 -5.32104 -13.8
8384 1 -7.37999 -5.13606 -13.8153 -7.37999 -5.13606 -13.8153
8984 1 -6.00719 -4.52328 -13.576 -6.00719 -4.52328 -13.576
1095 1 -7.22959 -5.79785 -12.4832 -7.22959 -5.79785 -12.4832
11915 1 -4.90571 -5.29979 -12.8084 -4.90571 -5.29979 21.2053
9034 1 -3.92362 -5.26721 -14.0088 -3.92362 -5.26721 -14.0088
3078 1 -2.4207 -4.45105 -13.427 -2.4207 -4.45105 -13.427
5230 1 -1.70863 -5.68381 -12.7112 -1.70863 -5.68381 -12.7112
2767 1 -0.617604 -4.72185 -12.7196 -0.617604 -4.72185 -12.7196
5315 1 -16.5732 -3.20867 -14.1308 -16.5732 -3.20867 -14.1308
11686 1 -14.5178 -2.68055 -12.726 19.4959 -2.68055 21.2877
3649 1 -14.1543 -4.06304 -14.0761 -14.1543 -4.06304 -14.0761
1812 1 -10.803 -3.69256 -13.7413 -10.803 -3.69256 -13.7413
8459 1 -7.88382 -3.83001 -13.1104 -7.88382 -3.83001 -13.1104
13508 1 -9.74616 -4.40131 -12.6456 24.2676 -4.40131 -12.6456
1617 1 -6.26621 -2.63458 -13.1056 -6.26621 -2.63458 -13.1056
8515 1 -5.55684 -2.69961 -14.0738 28.4569 -2.69961 -14.0738
9145 1 -1.74345 -3.26725 -13.3133 -1.74345 -3.26725 -13.3133
8961 1 -3.20584 -3.16081 -12.7243 -3.20584 -3.16081 -12.7243
3970 1 -0.781537 -3.89466 -13.9503 -0.781537 -3.89466 20.0634
4403 1 -14.936 -2.50046 -14.1001 -14.936 -2.50046 -14.1001
11087 1 -13.6247 -2.59236 -13.7633 -13.6247 -2.59236 20.2504
2727 1 -11.7193 -2.69913 -13.5677 -11.7193 -2.69913 -13.5677
6177 1 -9.79131 -2.40549 -14.4004 -9.79131 -2.40549 19.6133
5220 1 -7.76709 -1.82935 -13.1051 -7.76709 -1.82935 -13.1051
3883 1 -8.71523 -2.62534 -12.3321 -8.71523 -2.62534 21.6816
12024 1 -4.32562 -2.73661 -13.6329 -4.32562 -2.73661 20.3808
7102 1 -3.63393 -1.11696 -14.1379 -3.63393 32.8967 19.8758
6860 1 -3.14859 -1.94543 -13.2835 -3.14859 -1.94543 20.7302
1679 1 -0.533828 -2.52185 -14.41 -0.533828 -2.52185 -14.41
9036 1 -16.7718 -0.536271 -13.554 17.2419 -0.536271 -13.554
2585 1 -15.5628 -1.73486 -13.147 -15.5628 -1.73486 20.8667
120 1 -16.9515 -8.4366 -5.14613 -16.9515 -8.4366 -5.14613
2019 1 -14.1128 -1.31694 -13.6554 -14.1128 -1.31694 -13.6554
13947 1 -13.4743 -0.614629 -14.1984 20.5394 -0.614629 -14.1984
9657 1 -11.4383 -0.414633 -14.0972 22.5754 -0.414633 -14.0972
14911 1 -12.7126 -0.308391 -13.0063 21.3011 -0.308391 21.0074
1336 1 -10.1243 -1.40196 -13.923 -10.1243 -1.40196 -13.923
11459 1 -10.6063 -1.08744 -13.0997 23.4074 -1.08744 20.914
676 1 -8.92653 -1.46184 -13.3475 -8.92653 -1.46184 -13.3475
16290 1 -7.65436 -0.632744 -13.5601 26.3594 -0.632744 -13.5601
2841 1 -5.99826 -0.260762 -12.9455 -5.99826 -0.260762 21.0683
15488 1 -5.48285 -1.80061 -12.9149 28.5309 -1.80061 21.0988
2980 1 -1.63148 -0.905188 -13.2541 -1.63148 -0.905188 -13.2541
15421 1 -0.170554 -7.34428 -16.4782 -0.170554 26.6694 -16.4782