ITEM: TIMESTEP
3000
ITEM: NUMBER OF ATOMS
16384
ITEM: BOX BOUNDS pp pp pp
-1.7006855707231768e+01 1.7006855707231768e+01
-1.7006855707231768e+01 1.7006855707231768e+01
-1.7006855707231768e+01 1.7006855707231768e+01
ITEM: ATOMS id type x y z xu yu zu
7216 1 -15.3882 -16.645 -16.6819 -15.3882 17.3687 17.3318
6256 1 -14.9648 -15.9285 -15.9134 -14.9648 18.0852 18.1003
4014 1 -16.5092 -15.6521 -16.2299 -16.5092 -15.6521 17.7838
223 1 -16.9474 -10.3272 -10.835 -16.9474 -44.3409 -10.835
2939 1 -13.7619 -16.2712 -15.3361 -13.7619 -16.2712 18.6776
261 1 -16.7068 -4.2176 -5.98032 -16.7068 -4.2176 -5.98032
6463 1 -12.4372 -15.4642 -15.317 -12.4372 18.5495 18.6968
13064 1 -12.2587 -16.4878 -16.968 21.755 17.526 17.0457
15997 1 -9.63346 -16.4264 -16.2259 -9.63346 17.5873 17.7878
3150 1 -15.7426 -0.0932374 -7.91655 -15.7426 -0.0932374 -7.91655
10093 1 -8.63332 -16.9171 -15.0607 25.3804 -16.9171 -15.0607
7718 1 -7.30524 -15.0531 -16.8864 -7.30524 18.9606 17.1273
7428 1 -6.25452 -16.2516 -16.8916 -6.25452 17.7622 17.1221
15537 1 -0.0751896 -12.5737 -8.86864 -0.0751896 21.44 -8.86864
916 1 -0.114745 -2.21633 -13.7365 -0.114745 -2.21633 -13.7365
11572 1 -4.35152 -16.0474 -15.979 -4.35152 17.9663 18.0347
8917 1 -6.52104 -0.314712 -10.3551 -6.52104 -0.314712 -10.3551
1661 1 -2.52063 -16.2945 -15.5768 -2.52063 -16.2945 -15.5768
14759 1 -0.680074 -16.1266 -16.6046 -0.680074 17.8872 17.4091
10333 1 -6.82945 -4.04367 -0.284233 -6.82945 -38.0574 -0.284233
4805 1 -16.9368 -0.875719 -7.094 -16.9368 -0.875719 -7.094
11628 1 -13.0812 -14.9272 -16.2039 20.9325 -14.9272 17.8098
6866 1 -12.1058 -13.9996 -15.6778 -12.1058 20.0142 18.3359
13995 1 -10.7597 -14.4693 -16.7682 -10.7597 19.5444 -16.7682
12004 1 -11.1252 -15.9011 -15.4394 22.8885 18.1126 18.5743
1281 1 -9.06977 -14.8355 -15.9494 -9.06977 -14.8355 -15.9494
3899 1 -8.59719 -15.7058 -16.4987 -8.59719 -15.7058 17.515
9314 1 -3.34195 -4.56793 -16.8929 -3.34195 -4.56793 -16.8929
7864 1 -5.35991 -15.1768 -16.7345 -5.35991 18.8369 17.2792
11359 1 -3.72783 -14.2539 -15.2715 -3.72783 -14.2539 18.7422
15558 1 -2.26397 -15.1445 -15.0343 -2.26397 18.8692 18.9794
910 1 -2.84837 -14.8336 -16.03 -2.84837 -14.8336 -16.03
4406 1 -9.58133 -17.0057 -10.5816 -9.58133 17.008 -10.5816
4910 1 -16.5052 -12.4516 -16.227 -16.5052 -12.4516 -16.227
8786 1 -13.5688 -14.7686 -15.2316 20.4449 -14.7686 -15.2316
5529 1 -0.329763 -14.5329 -3.74205 -0.329763 19.4808 -3.74205
1414 1 -13.8138 -13.1063 -14.9309 -13.8138 -13.1063 -14.9309
5786 1 -12.997 -13.8105 -16.8439 -12.997 20.2032 -16.8439
6272 1 -10.694 -13.4261 -15.3191 -10.694 20.5876 18.6947
192 1 -4.13052 -16.8556 -5.06429 -4.13052 -16.8556 -5.06429
5478 1 -8.82634 -13.1882 -16.8415 -8.82634 20.8256 -16.8415
14052 1 -7.68958 -14.2887 -16.2639 26.3241 19.725 -16.2639
12118 1 -4.69433 -14.358 -15.9176 -4.69433 -14.358 -15.9176
13970 1 -4.59643 -13.1696 -15.3022 -4.59643 -13.1696 -15.3022
5064 1 -3.79998 -0.899829 -2.10422 -3.79998 -0.899829 -2.10422
1852 1 -1.52493 -14.8998 -16.3499 -1.52493 -14.8998 -16.3499
10478 1 -0.764502 -13.6981 -15.6211 -0.764502 -13.6981 18.3926
11940 1 -14.5067 -13.0502 -15.9395 19.507 -13.0502 18.0742
15130 1 -12.699 -16.1125 -5.73559 21.3147 17.9012 -5.73559
8635 1 -14.3674 -12.0353 -16.6166 19.6463 -12.0353 -16.6166
2238 1 -12.8802 -13.0566 -15.7656 -12.8802 -13.0566 18.2482
3531 1 -12.1126 -13.0878 -16.8018 -12.1126 -13.0878 17.212
4057 1 -16.7332 -14.699 -9.93321 17.2805 19.3147 -9.93321
4527 1 -16.5876 -15.751 -3.22794 -16.5876 -15.751 -3.22794
3460 1 -5.78907 -12.6906 -15.943 -5.78907 -12.6906 -15.943
1795 1 -4.60574 -13.4438 -16.7586 -4.60574 -13.4438 -16.7586
11401 1 -3.74835 -12.6759 -16.6328 -3.74835 -12.6759 17.3809
2882 1 -1.64454 -11.1142 -16.8372 -1.64454 -11.1142 17.1765
13695 1 -0.0618235 -8.68894 -2.89461 -0.0618235 25.3248 -2.89461
6397 1 -0.655854 -11.2229 -15.9911 -0.655854 22.7908 18.0226
8288 1 -15.822 -10.1556 -16.6074 18.1917 -10.1556 -16.6074
10276 1 -16.7752 -10.9284 -15.8921 17.2385 -10.9284 -15.8921
3766 1 -16.9489 -3.32659 -0.154521 -16.9489 -3.32659 -0.154521
2794 1 -15.6331 -11.3154 -16.599 -15.6331 -11.3154 17.4147
2868 1 -13.6717 -10.6254 -15.11 -13.6717 -10.6254 18.9037
13199 1 -11.6218 -11.4432 -16.1879 -11.6218 22.5705 -16.1879
12072 1 -10.3996 -11.3611 -15.4431 23.6141 -11.3611 18.5706
14356 1 -16.9488 -3.88962 -3.67953 17.0649 30.1241 -3.67953
9592 1 -7.66531 -9.97982 -15.7577 -7.66531 -9.97982 -15.7577
9410 1 -16.6096 -2.79947 -15.8554 17.4041 -2.79947 -15.8554
3906 1 -5.87706 -11.4441 -15.6525 -5.87706 -11.4441 18.3612
271 1 -4.73574 -10.3843 -16.2511 -4.73574 -10.3843 -16.2511
11063 1 -1.7711 -10.2352 -16.0329 -1.7711 -10.2352 17.9808
9355 1 -0.841757 -10.5363 -15.0614 -0.841757 -10.5363 18.9523
4520 1 -14.7643 -0.455166 -9.20475 -14.7643 -0.455166 -9.20475
1378 1 -13.3735 -8.46853 -16.2294 -13.3735 -8.46853 -16.2294
1228 1 -13.7586 -9.03918 -14.6919 -13.7586 -9.03918 -14.6919
11459 1 -11.0346 -0.216097 -13.4465 22.9791 -0.216097 20.5672
468 1 -16.9675 -4.7379 -13.4199 -16.9675 -4.7379 -13.4199
4512 1 -4.52164 -0.304939 -11.2888 -4.52164 -0.304939 -11.2888
15352 1 -6.77318 -9.11775 -16.1934 27.2405 -9.11775 17.8203
2163 1 -8.45829 -8.7217 -16.0403 -8.45829 -8.7217 17.9735
6129 1 -6.44242 -10.5171 -16.1047 -6.44242 -10.5171 17.909
3816 1 -3.17926 -10.1743 -16.0804 -3.17926 -10.1743 17.9334
2063 1 -5.26979 -9.00012 -16.3901 -5.26979 -9.00012 17.6236
8581 1 -0.275856 -10.0791 -16.1249 -0.275856 -10.0791 -16.1249
5379 1 -15.8876 -7.04757 -16.3084 -15.8876 26.9661 -16.3084
12128 1 -14.628 -7.94994 -16.1185 -14.628 -7.94994 -16.1185
7013 1 -12.369 -8.09746 -15.6982 -12.369 25.9162 18.3155
5197 1 -9.18277 -0.113316 -0.173609 -9.18277 -0.113316 -0.173609
9539 1 -8.99096 -7.38796 -15.0014 -8.99096 -7.38796 -15.0014
4529 1 -15.9034 -16.5754 -2.71936 -15.9034 17.4383 -2.71936
12459 1 -6.76425 -6.90412 -16.7875 -6.76425 27.1096 -16.7875
1321 1 -5.81471 -7.0048 -15.8703 -5.81471 -7.0048 -15.8703
2393 1 -3.28263 -8.56366 -15.2259 -3.28263 -8.56366 -15.2259
9916 1 -3.6419 -7.35826 -16.0665 -3.6419 -7.35826 -16.0665
3995 1 -1.91792 -8.86443 -16.0029 -1.91792 -8.86443 18.0108
3870 1 -7.24216 -0.196273 -5.19909 -7.24216 -0.196273 -5.19909
15421 1 -1.06561 -8.13967 -15.8501 -1.06561 25.874 -15.8501
3751 1 -0.535954 -9.08192 -8.15942 -0.535954 -9.08192 25.8543
2254 1 -16.5655 -5.84979 -15.8108 -16.5655 -5.84979 18.2029
9267 1 -14.2101 -6.87858 -16.5786 19.8036 -6.87858 -16.5786
8388 1 -11.6386 -6.73808 -15.1819 -11.6386 -6.73808 -15.1819
5727 1 -13.5528 -5.65511 -16.9258 -13.5528 -5.65511 -16.9258
10912 1 -12.1725 -6.29998 -16.6236 21.8413 -6.29998 17.3902
704 1 -11.0584 -6.45631 -16.6812 -11.0584 -6.45631 -16.6812
3885 1 -8.85948 -6.42493 -16.54 -8.85948 -6.42493 17.4737
7114 1 -15.9013 -16.9143 -4.2297 -15.9013 17.0994 -4.2297
13013 1 -7.73088 -6.9694 -15.3862 -7.73088 27.0443 -15.3862
11190 1 -8.39236 -5.41069 -15.9021 -8.39236 -5.41069 18.1116
8721 1 -5.88694 -6.14725 -16.5632 -5.88694 -6.14725 -16.5632
461 1 -4.46805 -6.95015 -14.8416 -4.46805 -6.95015 -14.8416
1666 1 -4.89396 -7.0185 -16.801 -4.89396 -7.0185 -16.801
1973 1 -10.8342 -17.018 -5.91414 -10.8342 -17.018 -5.91414
10134 1 -3.38333 -5.91166 -16.3386 -3.38333 -5.91166 -16.3386
15213 1 -2.50152 -7.17069 -15.6293 -2.50152 26.843 18.3844
13146 1 -16.2531 -3.78783 -16.0717 17.7606 -3.78783 -16.0717
13684 1 -12.6398 -4.64449 -16.0393 21.3739 -4.64449 -16.0393
5221 1 -11.9402 -5.41197 -15.4094 -11.9402 28.6017 18.6043
2906 1 -11.7912 -3.06497 -16.5164 -11.7912 -3.06497 17.4973
14117 1 -10.0171 -5.4786 -16.5178 -10.0171 -5.4786 -16.5178
7782 1 -9.09994 -4.3635 -15.7829 -9.09994 -4.3635 18.2308
3495 1 -7.81911 -4.04317 -15.8848 -7.81911 -4.04317 18.1289
13514 1 -8.25316 -5.92008 -14.7837 -8.25316 -5.92008 -14.7837
662 1 -8.5039 -0.642755 -5.78045 -8.5039 -0.642755 -5.78045
3705 1 -0.763784 -12.1423 -3.02794 -0.763784 -12.1423 -3.02794
7149 1 -4.81636 -4.82564 -16.7 -4.81636 -4.82564 17.3138
5089 1 -2.44811 -4.6211 -15.7663 -2.44811 -4.6211 -15.7663
7837 1 -1.92765 -5.66706 -16.909 -1.92765 -5.66706 17.1047
6519 1 -0.983493 -4.54242 -16.2691 -0.983493 -4.54242 17.7446
865 1 -15.3686 -2.83517 -15.8581 -15.3686 -2.83517 -15.8581
230 1 -11.8964 -6.81322 -0.135149 -11.8964 -6.81322 -0.135149
2288 1 -14.4581 -4.77044 -16.4008 -14.4581 -4.77044 17.6129
233 1 -14.1064 -2.37965 -13.9863 -14.1064 -2.37965 -13.9863
6725 1 -13.726 -3.80134 -15.1438 -13.726 -3.80134 18.8699
570 1 -12.6908 -2.69168 -15.7346 -12.6908 -2.69168 -15.7346
13232 1 -10.9827 -3.19293 -14.8478 23.031 -3.19293 -14.8478
10909 1 -10.0918 -3.31819 -16.0932 23.9219 -3.31819 17.9205
9624 1 -9.02652 -2.99364 -15.1509 24.9872 -2.99364 -15.1509
1754 1 -13.6781 -16.8132 -9.93462 -13.6781 -16.8132 -9.93462
12301 1 -6.65034 -2.31255 -16.0496 -6.65034 -2.31255 17.9641
1788 1 -6.06204 -4.06416 -16.2367 -6.06204 -38.0779 -16.2367
13511 1 -3.35765 -0.416515 -7.72724 -3.35765 -0.416515 -7.72724
10407 1 -3.03861 -3.18424 -16.6569 -3.03861 -3.18424 -16.6569
9082 1 -1.68679 -3.57076 -16.7645 -1.68679 -3.57076 -16.7645
4208 1 -1.60188 -16.2822 -1.76232 -1.60188 17.7315 -1.76232
9359 1 -14.3822 -10.6196 -16.553 19.6315 -10.6196 -16.553
15607 1 -16.6442 -1.98276 -16.5686 17.3695 -1.98276 17.4451
2701 1 -15.3027 -2.20463 -17.0191 -15.3027 -2.20463 16.9946
5131 1 -11.7491 -1.95755 -15.8619 -11.7491 -1.95755 -15.8619
3855 1 -10.6751 -2.03465 -15.2074 -10.6751 -2.03465 18.8063
1279 1 -8.92036 -2.42876 -16.1816 -8.92036 -2.42876 -16.1816
7492 1 -5.31852 -2.63676 -16.2298 -5.31852 -2.63676 17.7839
14411 1 -7.87465 -1.45329 -16.0635 -7.87465 -1.45329 17.9502
13096 1 -4.59048 -1.30751 -16.5773 -4.59048 -1.30751 -16.5773
3839 1 -3.32019 -2.12745 -15.7282 -3.32019 -2.12745 18.2855
478 1 -2.38386 -1.84032 -16.6055 -2.38386 -35.854 -16.6055
1853 1 -4.41843 -8.05786 -16.9857 -4.41843 -8.05786 -16.9857
16350 1 -15.6352 -0.637646 -16.0457 18.3786 -0.637646 17.968
1241 1 -0.0488298 -15.6011 -11.633 -34.0625 -15.6011 -11.633
2366 1 -14.2806 -1.5539 -15.9915 -14.2806 -1.5539 18.0222
2155 1 -13.7426 -0.194704 -14.8928 -13.7426 -0.194704 19.1209
5524 1 -13.0082 -1.34094 -16.4834 -13.0082 -1.34094 -16.4834
15605 1 -4.47863 -15.9239 -12.4654 -4.47863 18.0898 21.5483
5678 1 -10.3543 -0.583046 -15.4245 -10.3543 -0.583046 -15.4245
5066 1 -11.5094 -1.21751 -16.9451 -11.5094 -1.21751 -16.9451
5665 1 -9.82509 -0.552629 -16.5147 -9.82509 -0.552629 -16.5147
2191 1 -7.41298 -0.777167 -14.887 -7.41298 -0.777167 19.1267
13414 1 -9.57788 -16.751 -4.29229 24.4358 17.2627 -4.29229
3795 1 -5.6553 -0.175567 -17.0323 -5.6553 -0.175567 16.9814
6799 1 -4.44425 -0.391782 -15.8449 -4.44425 -0.391782 18.1688
12294 1 -1.74313 -0.0578082 -16.7237 -1.74313 -0.0578082 17.29
12769 1 -3.57088 -1.50838 -16.5305 -3.57088 -1.50838 -16.5305
1472 1 -1.07204 -1.41314 -15.9817 -1.07204 -1.41314 -15.9817
2149 1 -6.54936 -14.5968 -0.174818 -6.54936 -14.5968 -0.174818
12326 1 -15.8087 -15.9691 -15.0056 18.205 -15.9691 19.0081
1625 1 -13.5616 -15.9865 -13.9241 -13.5616 -15.9865 -13.9241
9994 1 -11.2149 -16.1467 -14.1788 22.7988 -16.1467 -14.1788
7387 1 -3.38874 -8.42594 -16.3838 -3.38874 25.5878 17.6299
5237 1 -8.66908 -16.6171 -13.3004 -8.66908 17.3966 20.7133
2162 1 -9.59646 -15.1911 -14.7484 -9.59646 -15.1911 19.2653
15998 1 -6.47127 -16.3715 -14.4696 -6.47127 -16.3715 19.5441
1970 1 -7.98329 -15.5836 -15.6459 -7.98329 -15.5836 -15.6459
1461 1 -5.69483 -16.8496 -15.7873 -5.69483 -16.8496 -15.7873
8838 1 -4.11762 -15.9351 -14.0424 -4.11762 -15.9351 -14.0424
6199 1 -5.36986 -0.196291 -9.75604 -5.36986 -0.196291 -9.75604
14307 1 -4.91938 -15.4116 -15.097 29.0943 18.6021 -15.097
13151 1 -3.08464 -16.264 -14.6213 -3.08464 17.7497 -14.6213
5843 1 -5.85725 -16.7312 -9.53606 -5.85725 17.2825 -9.53606
15754 1 -13.6936 -3.32703 -16.6939 20.3201 -3.32703 17.3198
5989 1 -15.4846 -14.9006 -15.95 -15.4846 19.1131 -15.95
2114 1 -14.7086 -14.3797 -14.2299 -14.7086 -14.3797 19.7838
14619 1 -11.7165 -14.4471 -14.3142 22.2972 19.5666 -14.3142
4829 1 -9.65647 -13.9884 -14.9927 -9.65647 20.0253 -14.9927
7613 1 -9.75302 -16.0786 -13.6605 -9.75302 17.9351 20.3532
10048 1 -5.79297 -14.2147 -16.5532 -5.79297 -14.2147 -16.5532
4926 1 -6.3323 -15.4696 -15.705 -6.3323 18.5441 -15.705
10084 1 -0.91432 -14.7695 -15.1468 -0.91432 -14.7695 -15.1468
5612 1 -1.62692 -14.4718 -13.7793 -1.62692 19.5419 -13.7793
8847 1 -15.0948 -13.3174 -13.8773 18.9189 -13.3174 -13.8773
4814 1 -12.9566 -12.5165 -13.9159 -12.9566 21.4973 -13.9159
2933 1 -11.9484 -13.3733 -14.7927 -11.9484 -13.3733 19.221
14994 1 -10.9041 -14.6154 -15.5052 23.1096 19.3983 18.5086
3967 1 -12.3373 -13.1913 -12.5633 -12.3373 -13.1913 21.4504
12208 1 -8.56789 -13.5978 -15.4909 25.4458 -13.5978 18.5228
5482 1 -7.44926 -14.2854 -15.2697 -7.44926 19.7283 -15.2697
312 1 -7.47449 -12.5919 -14.1485 -7.47449 -12.5919 19.8652
82 1 -6.75527 -13.4641 -13.8322 -6.75527 -13.4641 -13.8322
11234 1 -4.99546 -13.3144 -13.2436 -4.99546 -13.3144 20.7701
15533 1 -5.99632 -13.8793 -15.256 -5.99632 -13.8793 -15.256
5413 1 -3.09047 -14.7343 -14.2521 -3.09047 19.2794 -14.2521
15863 1 -2.72981 -12.7742 -15.9387 -2.72981 21.2395 18.075
7564 1 -2.14205 -13.5673 -14.9567 -2.14205 20.4464 19.0571
9583 1 -0.609054 -7.22041 -16.4401 -0.609054 -7.22041 -16.4401
516 1 -1.19927 -12.4709 -14.6997 -1.19927 -12.4709 -14.6997
736 1 -15.5464 -13.4433 -15.3032 -15.5464 -13.4433 -15.3032
8938 1 -15.7454 -11.2607 -14.9587 18.2683 -11.2607 -14.9587
4146 1 -14.6646 -11.3282 -15.0468 -14.6646 22.6855 -15.0468
11950 1 -11.9414 -10.8513 -15.2715 22.0723 -10.8513 18.7422
7734 1 -9.58889 -12.4748 -15.8319 -9.58889 21.539 18.1818
12676 1 -9.92497 -12.867 -14.656 24.0887 21.1468 -14.656
3604 1 -7.91983 -11.7692 -14.8739 -7.91983 -11.7692 19.1398
6141 1 -6.90563 -11.1253 -15.1079 -6.90563 22.8884 18.9058
13343 1 -4.93362 -11.9985 -15.1136 -4.93362 22.0152 -15.1136
4030 1 -6.03455 -12.308 -14.6815 -6.03455 -12.308 19.3322
618 1 -3.292 -12.9521 -14.9452 -3.292 -12.9521 -14.9452
3884 1 -3.16707 -11.5794 -16.3779 -3.16707 -11.5794 17.6358
2010 1 -1.21988 -12.3616 -15.8709 -1.21988 -12.3616 18.1428
2128 1 -2.20089 -11.3974 -15.3138 -2.20089 -11.3974 18.6999
14498 1 -0.189684 -11.5723 -13.327 -0.189684 -11.5723 20.6867
3103 1 -15.2359 -12.2846 -14.6445 -15.2359 -12.2846 19.3693
5723 1 -15.353 -9.3793 -15.5459 -15.353 24.6344 -15.5459
921 1 -14.5837 -11.3724 -12.8686 -14.5837 -11.3724 -12.8686
1868 1 -12.6152 -10.0103 -14.992 -12.6152 -10.0103 -14.992
2243 1 -11.2306 -10.1267 -15.6193 -11.2306 -10.1267 18.3944
4413 1 -10.7198 -9.31684 -14.6118 -10.7198 24.6969 -14.6118
13170 1 -7.3504 -10.2694 -14.2623 -7.3504 23.7443 -14.2623
602 1 -5.07874 -11.1889 -14.3574 -5.07874 -11.1889 -14.3574
5116 1 -6.23704 -9.88564 -14.7521 -6.23704 -9.88564 -14.7521
4665 1 -4.38918 -10.2061 -14.7854 -4.38918 23.8076 -14.7854
11018 1 -3.11842 -11.0696 -15.0775 -3.11842 -11.0696 18.9362
8542 1 -1.79263 -11.0043 -13.6736 -1.79263 -11.0043 -13.6736
2121 1 -2.39366 -9.82532 -12.848 -2.39366 -9.82532 -12.848
508 1 -16.319 -9.73647 -14.0652 -16.319 -9.73647 19.9485
1348 1 -15.6713 -8.29345 -15.0861 -15.6713 -8.29345 -15.0861
6731 1 -11.6072 -9.67123 -16.806 -11.6072 24.3425 17.2077
8965 1 -12.5519 -9.66168 -16.1052 21.4619 -9.66168 -16.1052
2381 1 -12.6399 -8.16689 -14.4686 -12.6399 -8.16689 19.5451
8072 1 -9.83922 -10.2878 -15.8659 -9.83922 23.7259 18.1478
2449 1 -8.53619 -11.6263 -15.902 -8.53619 -11.6263 18.1117
150 1 -9.02832 -9.824 -15.3259 -9.02832 -9.824 -15.3259
13515 1 -6.57191 -7.79059 -16.3141 27.4418 -7.79059 -16.3141
9906 1 -7.64289 -8.86642 -14.8765 -7.64289 -8.86642 -14.8765
3125 1 -5.58265 -9.05087 -15.0714 -5.58265 -9.05087 18.9423
10615 1 -2.8614 -9.99216 -14.5484 -2.8614 -9.99216 19.4653
10137 1 -4.03518 -9.357 -16.0021 -4.03518 -9.357 -16.0021
4474 1 -1.55434 -9.78637 -14.0401 -1.55434 24.2273 -14.0401
3355 1 -0.396078 -9.81318 -13.6303 -0.396078 -9.81318 20.3834
898 1 -16.2137 -7.39188 -14.9498 -16.2137 -7.39188 -14.9498
8583 1 -13.461 -7.68676 -15.2655 -13.461 -7.68676 -15.2655
1070 1 -10.8075 -8.10284 -15.3363 -10.8075 -8.10284 -15.3363
15587 1 -10.3975 -9.1168 -16.3901 23.6162 -9.1168 17.6236
12124 1 -10.155 -7.59952 -14.6267 -10.155 -7.59952 -14.6267
4269 1 -11.9463 -8.97115 -15.2233 -11.9463 -8.97115 -15.2233
12672 1 -9.87219 -7.33155 -16.0387 24.1415 -7.33155 -16.0387
8711 1 -9.73014 -8.82279 -15.2595 -9.73014 -8.82279 -15.2595
1593 1 -7.89491 -7.76638 -14.6915 -7.89491 -7.76638 -14.6915
15403 1 -5.4243 -7.86696 -15.0119 -5.4243 -7.86696 19.0018
320 1 -7.08073 -8.62164 -13.8692 -7.08073 -8.62164 -13.8692
1831 1 -3.41294 -7.92782 -13.6525 -3.41294 -7.92782 -13.6525
350 1 -2.07341 -8.19425 -14.8096 -2.07341 -8.19425 -14.8096
3082 1 -0.500499 -8.55221 -14.9008 -0.500499 -8.55221 19.1129
4310 1 -15.1015 -6.22542 -15.6427 -15.1015 27.7883 -15.6427
11824 1 -13.5581 -6.98425 -12.2306 20.4556 -6.98425 21.7831
13964 1 -13.1567 -6.52386 -15.6277 -13.1567 -6.52386 -15.6277
8777 1 -12.6067 -7.14456 -14.0732 -12.6067 -7.14456 19.9405
2478 1 -10.4697 -6.13542 -15.0639 -10.4697 -6.13542 18.9498
10453 1 -9.48876 -6.02564 -15.4612 24.525 -6.02564 18.5525
8225 1 -9.22616 -6.53356 -14.1431 -9.22616 -6.53356 -14.1431
9939 1 -7.03808 -5.7665 -14.2949 -7.03808 -5.7665 -14.2949
11112 1 -6.69682 -7.00967 -14.8596 -6.69682 -7.00967 19.1541
7878 1 -3.98613 -8.47443 -14.4524 -3.98613 25.5393 19.5614
5203 1 -5.51461 -7.21217 -14.2548 -39.5283 -7.21217 -14.2548
10992 1 -3.05237 -6.65945 -14.6292 -3.05237 -6.65945 19.3845
8968 1 -0.766191 -7.03201 -14.333 -0.766191 -7.03201 -14.333
16127 1 -1.50336 -5.22531 -15.3084 -1.50336 -5.22531 18.7053
1707 1 -1.57466 -6.74825 -16.2719 -1.57466 -6.74825 -16.2719
1366 1 -15.1521 -6.2623 -14.5555 -15.1521 -6.2623 -14.5555
2690 1 -9.42937 -16.9784 -14.1879 -9.42937 -16.9784 19.8258
16163 1 -14.9833 -3.86087 -15.2516 19.0304 -3.86087 18.7622
528 1 -15.7918 -4.92606 -15.3688 -15.7918 -4.92606 -15.3688
2832 1 -14.1816 -7.00723 -14.7957 -14.1816 -7.00723 19.2181
3649 1 -13.4443 -5.14494 -15.3978 -13.4443 -5.14494 -15.3978
11830 1 -10.8055 -4.74659 -15.6724 23.2082 -4.74659 18.3413
12771 1 -7.06179 -5.3224 -15.6499 -7.06179 28.6913 -15.6499
12043 1 -5.11945 -5.66433 -15.5675 -5.11945 -5.66433 18.4462
10875 1 -6.75193 -4.36605 -14.8695 27.2618 -4.36605 19.1442
9034 1 -4.86881 -5.98831 -14.22 -4.86881 -5.98831 -14.22
14071 1 -5.66599 -3.98683 -15.1205 -5.66599 30.0269 -15.1205
7029 1 -4.12507 -5.59342 -15.4947 -4.12507 28.4203 18.519
11231 1 -3.73737 -4.2134 -15.7568 -3.73737 -4.2134 18.2569
11257 1 -3.72383 -4.99448 -14.6006 -3.72383 -4.99448 19.4131
2242 1 -2.36893 -5.96859 -15.1573 -2.36893 -5.96859 18.8564
9145 1 -2.86843 -3.41006 -15.1682 -2.86843 -3.41006 -15.1682
4062 1 -0.536467 -5.71804 -13.5548 -0.536467 -5.71804 -13.5548
8774 1 -9.67875 -11.2124 -16.6749 -9.67875 -11.2124 -16.6749
15487 1 -14.7459 -7.89446 -0.339886 -14.7459 -7.89446 -0.339886
1383 1 -15.0871 -1.90667 -15.3986 -15.0871 -1.90667 -15.3986
5891 1 -14.2748 -4.7642 -14.4569 -14.2748 -4.7642 -14.4569
5076 1 -13.065 -2.83631 -14.4918 -13.065 31.1774 -14.4918
11087 1 -12.75 -3.96064 -14.2383 -12.75 -3.96064 19.7754
5332 1 -11.9354 -4.04169 -15.4 -11.9354 -4.04169 18.6137
10268 1 -11.8425 -3.84456 -12.8344 22.1712 -3.84456 -12.8344
7698 1 -9.9794 -3.60696 -14.4307 -9.9794 -3.60696 19.583
11751 1 -9.78726 -4.91212 -14.255 24.2264 -4.91212 19.7587
5974 1 -8.10593 -4.18375 -14.2961 -8.10593 -4.18375 -14.2961
3147 1 -7.17371 -3.19882 -15.5141 -7.17371 -3.19882 18.4997
2026 1 -3.96519 -3.19452 -15.859 -3.96519 -37.2082 -15.859
5317 1 -1.9091 -3.09246 -14.0339 -1.9091 -3.09246 -14.0339
3970 1 -1.33474 -4.14796 -14.604 -1.33474 -4.14796 19.4097
953 1 -0.434701 -2.8076 -15.978 -0.434701 -2.8076 -15.978
5315 1 -16.851 -1.05835 -15.3379 -16.851 -1.05835 -15.3379
15571 1 -13.8754 -1.31634 -13.1437 20.1383 -1.31634 20.87
3574 1 -12.0152 -2.30147 -14.1381 -12.0152 -2.30147 19.8756
5352 1 -9.51256 -2.22418 -14.3326 -9.51256 -2.22418 -14.3326
3805 1 -7.77576 -2.21158 -14.2941 -7.77576 -2.21158 19.7196
6925 1 -9.11685 -1.38399 -15.3026 -9.11685 32.6297 18.7111
8871 1 -6.49419 -1.97687 -14.4665 27.5195 -1.97687 -14.4665
8515 1 -5.25243 -2.84327 -15.224 28.7613 -2.84327 -15.224
12024 1 -5.02316 -1.27134 -15.1873 -5.02316 -1.27134 18.8264
476 1 -3.35605 -2.98965 -14.1136 -3.35605 -2.98965 -14.1136
3835 1 -3.71854 -1.31884 -14.3296 -3.71854 -1.31884 19.6841
4790 1 -2.31869 -1.61147 -14.9126 -2.31869 -1.61147 -14.9126
1679 1 -2.45403 -1.95628 -13.8413 -2.45403 -1.95628 -13.8413
7710 1 -1.75166 -3.08128 -15.4261 -1.75166 -3.08128 18.5876
12753 1 -15.2772 -0.729507 -14.8546 18.7365 -0.729507 -14.8546
15392 1 -14.0629 -1.14286 -14.2498 19.9508 -1.14286 19.7639
9365 1 -13.2539 -1.89993 -15.341 -13.2539 -1.89993 -15.341
14911 1 -13.1263 -0.338075 -13.5238 20.8874 -0.338075 20.4899
2291 1 -11.3945 -0.714952 -15.797 -11.3945 -0.714952 18.2167
14786 1 -12.1648 -0.601616 -13.6523 21.8489 -0.601616 20.3614
15471 1 -9.64188 -0.65277 -14.5173 24.3718 -0.65277 19.4964
14727 1 -8.73598 -1.30526 -14.2869 -8.73598 -1.30526 -14.2869
8063 1 -6.40551 -0.908967 -14.2383 -6.40551 -0.908967 19.7754
9361 1 -6.01003 -1.58146 -15.6024 -6.01003 -1.58146 -15.6024
3397 1 -16.9282 -2.17261 -1.36858 -16.9282 -2.17261 -1.36858
4676 1 -2.76954 -0.632512 -15.6339 -2.76954 -0.632512 -15.6339
13560 1 -2.84901 -0.74388 -13.6689 -2.84901 -0.74388 -13.6689
2980 1 -1.03357 -1.42739 -14.7227 -1.03357 -1.42739 -14.7227
8445 1 -0.0356175 -16.2424 -13.1684 -0.0356175 -16.2424 -13.1684
12090 1 -6.62092 -1.43937 -16.9059 27.3928 -1.43937 17.1078
4322 1 -15.8042 -16.1321 -13.5533 -15.8042 17.8816 -13.5533
7981 1 -14.5976 -15.6088 -14.3296 -14.5976 18.4049 19.6841
295 1 -13.9883 -16.8526 -13.4569 -13.9883 -16.8526 -13.4569
10850 1 -0.0656275 -0.0609116 -6.2433 -0.0656275 -0.0609116 27.7704
13193 1 -12.5921 -16.6702 -14.2911 21.4216 17.3435 -14.2911
11576 1 -0.25912 -7.47082 -7.55341 -0.25912 -7.47082 -7.55341
2200 1 -9.85076 -16.4429 -12.5732 -9.85076 -16.4429 21.4405
151 1 -0.710477 -10.6048 -1.05363 -0.710477 -10.6048 -1.05363
7143 1 -0.29166 -1.33353 -1.55493 -0.29166 -1.33353 -1.55493
804 1 -1.84924 -16.1736 -13.9792 -1.84924 -16.1736 -13.9792
9188 1 -0.0643955 -16.8805 -14.4502 -0.0643955 -16.8805 -14.4502
2724 1 -12.9898 -7.41831 -16.863 -12.9898 -7.41831 17.1507
8192 1 -16.4522 -14.4456 -12.7697 -16.4522 19.5681 21.244
1739 1 -15.2009 -14.9176 -12.9866 -15.2009 -14.9176 -12.9866
16266 1 -13.4381 -14.0366 -14.0645 20.5756 19.9772 -14.0645
2910 1 -13.9785 -14.774 -13.0744 -13.9785 -14.774 20.9393
7751 1 -10.592 -14.6579 -14.3578 -10.592 19.3558 19.6559
6369 1 -11.7777 -15.5175 -13.2204 -11.7777 18.4962 20.7933
1193 1 -10.9521 -15.9555 -12.7491 -10.9521 -15.9555 -12.7491
7688 1 -10.4884 -14.9999 -12.4199 -10.4884 -14.9999 21.5938
1997 1 -8.64821 -15.0819 -13.2424 -8.64821 -15.0819 -13.2424
12340 1 -8.30517 -13.8325 -12.8646 -8.30517 -13.8325 21.1491
2298 1 -7.91861 -15.623 -14.3163 -7.91861 -15.623 19.6974
4718 1 -6.7266 -15.1268 -14.7116 -6.7266 -15.1268 -14.7116
1339 1 -4.86618 -14.6461 -14.4434 -4.86618 -14.6461 -14.4434
11513 1 -5.71667 -16.1991 -13.7313 -5.71667 -16.1991 20.2825
6016 1 -3.2482 -15.4372 -13.5623 -3.2482 -15.4372 -13.5623
5291 1 -4.00671 -14.395 -13.3164 -4.00671 19.6187 -13.3164
11512 1 -1.08237 -16.4521 -14.8527 -1.08237 -16.4521 19.161
9996 1 -0.471524 -15.2598 -14.2461 33.5422 -15.2598 -14.2461
1229 1 -1.32186 -15.4042 -13.1933 -1.32186 -15.4042 -13.1933
7800 1 -16.0618 -15.0783 -13.9968 -16.0618 18.9354 20.0169
15942 1 -16.0526 -13.2877 -13.3439 17.9611 20.726 -13.3439
1514 1 -12.6554 -14.6944 -13.5609 -12.6554 -14.6944 -13.5609
8535 1 -11.0104 -14.3738 -13.4211 -11.0104 -14.3738 -13.4211
6711 1 -11.2804 -12.6082 -14.3011 -11.2804 21.4055 19.7126
4321 1 -9.99312 -14.2241 -13.212 -9.99312 -14.2241 -13.212
14809 1 -8.28519 -13.3242 -13.9854 -8.28519 -13.3242 -13.9854
9102 1 -8.24344 -14.4781 -14.1787 -8.24344 -14.4781 -14.1787
3070 1 -7.34419 -12.654 -12.8891 -7.34419 -12.654 21.1246
321 1 -5.84728 -14.694 -13.7242 -5.84728 -14.694 -13.7242
12783 1 -2.16111 -12.4967 -13.9517 -2.16111 21.517 -13.9517
2474 1 -3.02497 -14.2287 -12.886 -3.02497 -14.2287 21.1277
10628 1 -2.02212 -13.8935 -12.817 -2.02212 -13.8935 21.1967
5707 1 -0.685155 -13.6856 -14.304 -0.685155 20.3281 -14.304
11551 1 -14.7184 -14.2291 -16.2238 19.2953 19.7846 17.7899
7695 1 -15.6385 -11.8551 -12.9464 -15.6385 22.1586 21.0673
1603 1 -14.3348 -12.4618 -13.3279 -14.3348 -12.4618 -13.3279
3471 1 -12.8309 -11.6805 -14.9768 -12.8309 -11.6805 19.0369
305 1 -13.9177 -13.3589 -12.985 -13.9177 -13.3589 -12.985
8960 1 -9.23805 -11.9392 -14.1089 24.7757 -11.9392 -14.1089
1663 1 -10.8276 -12.2805 -15.9847 -10.8276 -12.2805 -15.9847
7956 1 -10.7157 -11.9346 -13.2337 -10.7157 22.0791 -13.2337
12886 1 -9.59139 -12.9429 -13.4159 -9.59139 21.0708 -13.4159
1798 1 -7.11385 -11.3599 -13.1673 -7.11385 -11.3599 -13.1673
352 1 -8.52015 -11.0974 -13.7523 -8.52015 -11.0974 -13.7523
7289 1 -6.23904 -11.9667 -13.1915 -6.23904 22.047 20.8222
839 1 -3.43174 -13.1937 -13.228 -3.43174 -13.1937 -13.228
6512 1 -4.2302 -10.9184 -12.4396 -4.2302 23.0953 21.5741
3882 1 -1.88333 -12.9123 -12.9764 -1.88333 -12.9123 -12.9764
7166 1 -0.981815 -12.5865 -13.5502 -34.9955 21.4272 20.4635
11013 1 -14.9657 -10.4162 -14.3617 19.0481 -10.4162 19.652
12083 1 -16.6908 -10.6448 -14.7499 17.3229 -10.6448 -14.7499
888 1 -16.0073 -10.818 -13.8436 -16.0073 -10.818 -13.8436
5086 1 -15.3663 -9.64504 -13.4008 -15.3663 24.3687 20.6129
14050 1 -12.8291 -10.5004 -12.8941 21.1846 23.5133 21.1196
10243 1 -13.1334 -11.1361 -13.9391 -13.1334 -11.1361 -13.9391
8527 1 -11.3961 -11.3266 -14.2152 22.6176 -11.3266 -14.2152
9636 1 -9.59096 -11.2196 -13.365 -9.59096 -11.2196 -13.365
10702 1 -9.6869 -10.5876 -14.2793 -9.6869 -10.5876 19.7344
1109 1 -6.07379 -9.31995 -12.8556 -6.07379 -9.31995 -12.8556
15986 1 -6.26723 -10.4841 -13.2515 -6.26723 -10.4841 20.7622
8214 1 -3.52287 -12.0961 -13.8779 -3.52287 21.9176 20.1358
6318 1 -3.56966 -10.7564 -13.7115 -3.56966 -10.7564 20.3022
10853 1 -2.7689 -11.5791 -13.3415 -2.7689 -11.5791 -13.3415
16370 1 -0.568207 -10.7582 -12.5813 -0.568207 23.2555 21.4324
11284 1 -13.2931 -0.698495 -7.09921 -13.2931 -0.698495 -7.09921
3803 1 -14.2544 -10.6908 -0.188617 -14.2544 -10.6908 -0.188617
3951 1 -14.8801 -8.4945 -13.9356 -14.8801 -8.4945 20.0781
15695 1 -14.9213 -8.07852 -12.8272 19.0924 25.9352 21.1865
4316 1 -13.6351 -7.3454 -13.6754 -13.6351 26.6683 -13.6754
12058 1 -13.888 -10.2106 -14.1021 20.1257 -10.2106 19.9116
5597 1 -13.0593 -9.21553 -13.5858 -13.0593 24.7982 -13.5858
3263 1 -11.4684 -9.84712 -13.8436 -11.4684 -9.84712 20.1701
3748 1 -10.2304 -8.17611 -13.6647 -10.2304 -8.17611 20.349
16335 1 -9.77193 -8.98055 -11.9853 24.2418 25.0332 22.0284
14101 1 -10.1439 -9.16704 -13.132 -10.1439 24.8467 -13.132
12785 1 -8.94933 -9.75098 -13.1181 -8.94933 -9.75098 -13.1181
791 1 -8.99433 -8.4914 -13.4322 -8.99433 -8.4914 -13.4322
2022 1 -7.63902 -9.74516 -13.0288 -7.63902 -9.74516 -13.0288
8340 1 -7.42255 -8.11274 -12.7919 -7.42255 -8.11274 -12.7919
10790 1 -3.8043 -9.48609 -14.2257 -3.8043 -9.48609 19.788
15036 1 -3.96303 -9.70014 -12.6988 -3.96303 -9.70014 21.3149
9990 1 -1.79387 -8.36071 -13.7566 -1.79387 -8.36071 -13.7566
13435 1 -1.35657 -8.54694 -12.5609 -1.35657 25.4668 -12.5609
806 1 -16.7195 -8.37445 -14.2921 -16.7195 -8.37445 -14.2921
12175 1 -16.2614 -6.53986 -13.8891 17.7523 -6.53986 20.1246
189 1 -14.8869 -7.68424 -14.9844 -14.8869 -7.68424 -14.9844
2761 1 -15.4615 -7.23173 -13.7395 -15.4615 -7.23173 -13.7395
1201 1 -15.6421 -7.5633 -11.8007 -15.6421 -7.5633 -11.8007
15720 1 -12.6699 -8.41297 -13.0568 21.3438 -8.41297 20.9569
1145 1 -11.385 -8.12881 -14.0924 -11.385 -8.12881 -14.0924
9089 1 -9.88014 -7.12493 -13.3569 -9.88014 -7.12493 -13.3569
1012 1 -6.63584 -6.97871 -13.697 -6.63584 -6.97871 -13.697
5756 1 -5.19624 -8.87054 -13.819 -5.19624 25.1432 20.1947
452 1 -5.01781 -7.65543 -13.0739 -5.01781 -7.65543 -13.0739
1727 1 -4.17064 -8.39621 -12.5055 -4.17064 -8.39621 -12.5055
10354 1 -3.23802 -6.93286 -12.4377 30.7757 -6.93286 -12.4377
5143 1 -1.83194 -7.05317 -13.7042 -1.83194 -7.05317 -13.7042
9579 1 -0.61368 -8.4046 -13.5394 -0.61368 -8.4046 -13.5394
7783 1 -16.4988 -6.73972 -12.8223 -16.4988 27.274 -12.8223
7447 1 -14.3091 -6.01527 -13.9057 -14.3091 -6.01527 20.108
11955 1 -13.4936 -6.14656 -13.1972 -13.4936 -6.14656 20.8165
12483 1 -10.7907 -5.67311 -12.7967 -10.7907 -5.67311 -12.7967
7035 1 -8.17783 -6.80868 -13.7361 -8.17783 27.205 20.2776
9330 1 -8.42661 -5.56084 -12.6128 25.5871 -5.56084 -12.6128
8390 1 -6.27802 -6.16936 -12.6925 -6.27802 -6.16936 -12.6925
2075 1 -3.912 -6.90668 -13.5679 -3.912 -6.90668 20.4458
3114 1 -1.9841 -5.80342 -14.1796 -1.9841 -5.80342 -14.1796
1732 1 -0.473801 -5.76236 -11.1345 -0.473801 -5.76236 -11.1345
9854 1 -17.0042 -5.40478 -14.2405 17.0095 -5.40478 -14.2405
13312 1 -15.6029 -4.69702 -13.9539 18.4109 -4.69702 -13.9539
224 1 -12.6745 -5.60048 -14.2999 -12.6745 -5.60048 -14.2999
4849 1 -11.583 -5.32441 -14.1823 -11.583 28.6893 19.8314
622 1 -10.7079 -4.15122 -13.3585 -10.7079 -4.15122 -13.3585
9544 1 -8.67192 -5.32805 -13.7958 -8.67192 -5.32805 -13.7958
2138 1 -8.53887 -4.5996 -11.8282 -8.53887 -4.5996 22.1855
9593 1 -7.85381 -4.55175 -13.1004 26.1599 -4.55175 -13.1004
8384 1 -5.89725 -5.75947 -14.5846 -5.89725 -5.75947 -14.5846
8984 1 -5.3074 -5.33522 -13.4802 -5.3074 -5.33522 -13.4802
7702 1 -3.62252 -5.3906 -13.4369 -3.62252 -5.3906 20.5768
3078 1 -3.19691 -4.42114 -13.526 -3.19691 -4.42114 -13.526
1741 1 -5.09403 -4.46894 -14.0219 -5.09403 -38.4827 -14.0219
1606 1 -1.77494 -4.76578 -13.77 -1.77494 -4.76578 -13.77
9620 1 -15.9695 -3.33845 -13.7424 18.0442 -3.33845 -13.7424
4904 1 -15.0271 -2.88324 -13.5454 -15.0271 -2.88324 -13.5454
5137 1 -13.6069 -4.31619 -13.1047 -13.6069 -4.31619 -13.1047
4753 1 -12.0571 -5.1343 -12.7009 -12.0571 -5.1343 -12.7009
1812 1 -10.6621 -3.31059 -12.2407 -10.6621 -3.31059 -12.2407
10506 1 -9.27504 -3.85135 -13.5157 24.7387 -3.85135 20.4981
5220 1 -7.13137 -3.63684 -13.8764 -7.13137 -3.63684 -13.8764
762 1 -6.12319 -3.32786 -14.3961 -6.12319 -3.32786 -14.3961
8459 1 -6.60014 -4.88069 -13.5669 -6.60014 -4.88069 -13.5669
4386 1 -5.00619 -3.30826 -13.928 -5.00619 -3.30826 -13.928