ITEM: TIMESTEP
4000
ITEM: NUMBER OF ATOMS
16384
ITEM: BOX BOUNDS pp pp pp
-1.7006855707231768e+01 1.7006855707231768e+01
-1.7006855707231768e+01 1.7006855707231768e+01
-1.7006855707231768e+01 1.7006855707231768e+01
ITEM: ATOMS id type x y z xu yu zu
4014 1 -16.6012 -16.3535 -16.5682 -16.6012 -16.3535 17.4455
7216 1 -14.9179 -16.3867 -16.6589 -14.9179 17.6271 17.3548
6256 1 -14.0311 -16.0179 -15.0912 -14.0311 17.9958 18.9225
10097 1 -5.72467 -16.829 -9.91799 -5.72467 -16.829 -9.91799
10116 1 -4.02463 -16.8079 -0.890008 29.9891 -16.8079 -0.890008
12377 1 -12.8143 -16.5167 -15.3828 21.1994 17.497 -15.3828
15997 1 -9.14736 -15.9503 -15.7718 -9.14736 18.0634 18.2419
3899 1 -8.14893 -15.6544 -16.409 -8.14893 -15.6544 17.6047
1704 1 -1.71545 -16.5577 -5.44298 -1.71545 -16.5577 -5.44298
1461 1 -6.36305 -16.1168 -16.4506 -6.36305 -16.1168 -16.4506
10814 1 -13.5945 -2.82534 -16.8403 20.4192 -2.82534 -16.8403
11572 1 -4.4638 -17.0299 -15.1997 -4.4638 16.9838 18.814
13586 1 -16.1722 -0.693892 -0.475711 17.8415 -0.693892 -0.475711
10502 1 -1.47461 -16.0243 -16.1248 32.5391 -16.0243 17.889
14595 1 -10.513 -0.0835455 -6.29238 -10.513 -0.0835455 -6.29238
5989 1 -15.9872 -14.0191 -15.7619 -15.9872 19.9946 -15.7619
11551 1 -14.3861 -15.0871 -16.3925 19.6276 18.9267 17.6213
11628 1 -13.0906 -15.6496 -16.1915 20.9231 -15.6496 17.8222
13995 1 -9.44817 -15.1272 -16.2846 -9.44817 18.8866 -16.2846
5767 1 -10.5577 -16.4233 -15.2584 -10.5577 17.5904 -15.2584
1281 1 -8.09395 -14.3206 -15.3166 -8.09395 -14.3206 -15.3166
9758 1 -0.235706 -0.544954 -12.5057 -0.235706 -0.544954 -12.5057
14052 1 -8.0482 -14.1885 -16.6487 25.9655 19.8252 -16.6487
1970 1 -7.51672 -16.2405 -14.8116 -7.51672 -16.2405 -14.8116
10048 1 -5.86865 -14.7632 -16.5817 -5.86865 -14.7632 -16.5817
4926 1 -7.35636 -16.4952 -16.9753 -7.35636 17.5185 -16.9753
7864 1 -5.24459 -15.6483 -16.3211 -5.24459 18.3654 17.6926
12118 1 -4.36301 -15.1552 -15.5585 -4.36301 -15.1552 -15.5585
910 1 -3.04753 -15.5948 -15.9071 -3.04753 -15.5948 -15.9071
1852 1 -2.05733 -15.0574 -15.6504 -2.05733 -15.0574 -15.6504
8917 1 -6.01789 -0.411998 -11.8903 -6.01789 -0.411998 -11.8903
8453 1 -15.0721 -13.1934 -16.1662 18.9416 -13.1934 -16.1662
11940 1 -13.8841 -13.4163 -16.0862 20.1296 -13.4163 17.9275
3429 1 -10.032 -16.5031 -2.1747 -10.032 -16.5031 -2.1747
2238 1 -12.7362 -13.2976 -15.3798 -12.7362 -13.2976 18.6339
6866 1 -12.4461 -14.0593 -16.5192 -12.4461 19.9544 17.4945
3531 1 -12.8765 -12.6169 -16.6085 -12.8765 -12.6169 17.4052
7396 1 -1.67689 -0.22206 -7.83264 -1.67689 -0.22206 26.1811
5478 1 -8.56945 -12.9297 -16.3959 -8.56945 21.084 -16.3959
2939 1 -14.6186 -16.9907 -14.589 -14.6186 -16.9907 19.4247
1795 1 -4.36057 -13.9057 -15.949 -4.36057 -13.9057 -15.949
15863 1 -2.10926 -11.7587 -16.2834 -2.10926 22.255 17.7303
10788 1 -2.6219 -13.8977 -15.8674 31.3918 -13.8977 18.1463
10478 1 -1.15924 -14.4793 -16.1301 -1.15924 -14.4793 17.8836
4276 1 -16.7528 -11.4044 -13.7955 -16.7528 22.6093 -13.7955
8635 1 -14.8894 -11.8739 -16.2381 19.1243 -11.8739 -16.2381
13199 1 -12.2228 -10.5489 -16.3753 -12.2228 23.4648 -16.3753
1663 1 -10.9216 -11.6578 -15.2503 -10.9216 -11.6578 -15.2503
7734 1 -9.76925 -13.7734 -16.0312 -9.76925 20.2403 17.9825
2449 1 -7.67167 -11.6854 -16.4339 -7.67167 -11.6854 17.5798
1048 1 -6.15099 -12.5327 -15.2824 -6.15099 -12.5327 -15.2824
3460 1 -5.08013 -12.9663 -16.8396 -5.08013 -12.9663 -16.8396
3906 1 -5.47433 -11.7009 -15.5024 -5.47433 -11.7009 18.5113
6849 1 -4.38657 -11.0766 -16.8173 -4.38657 -11.0766 17.1964
11401 1 -3.81391 -12.2255 -16.3916 -3.81391 -12.2255 17.6222
80 1 -16.9125 -0.401952 -14.0024 -16.9125 -0.401952 -14.0024
4716 1 -9.96116 -16.6744 -7.9296 -9.96116 17.3393 -7.9296
8288 1 -15.8323 -10.1154 -16.8389 18.1814 -10.1154 -16.8389
10093 1 -9.48696 -16.9439 -15.0533 24.5268 -16.9439 -15.0533
2794 1 -16.3577 -12.5562 -16.3392 -16.3577 -12.5562 17.6745
9359 1 -14.4719 -10.318 -16.5025 19.5418 -10.318 -16.5025
2243 1 -10.9515 -9.78437 -16.4658 -10.9515 -9.78437 17.548
8072 1 -10.3583 -11.6981 -16.2674 -10.3583 22.3156 17.7463
8774 1 -8.89622 -11.7542 -15.3352 -8.89622 -11.7542 -15.3352
9592 1 -8.98234 -10.8437 -16.0556 -8.98234 -10.8437 -16.0556
6129 1 -6.39527 -10.7904 -15.953 -6.39527 -10.7904 18.0607
271 1 -5.59012 -10.1987 -16.1187 -5.59012 -10.1987 -16.1187
3816 1 -2.29539 -9.87586 -15.9664 -2.29539 -9.87586 18.0473
9128 1 -0.353791 -0.497677 -0.31507 -0.353791 -0.497677 -0.31507
11063 1 -1.31074 -10.2779 -16.0828 -1.31074 -10.2779 17.9309
11930 1 -10.9085 -5.63689 -16.1691 23.1052 -5.63689 17.8446
8581 1 -0.567076 -8.96841 -16.2877 -0.567076 -8.96841 -16.2877
2690 1 -9.15538 -16.6052 -12.978 -9.15538 -16.6052 21.0357
10480 1 -11.9149 -16.8346 -9.95711 22.0988 -16.8346 -9.95711
8965 1 -12.4089 -10.0654 -14.7965 21.6048 -10.0654 -14.7965
15587 1 -9.73555 -9.6778 -16.5832 24.2782 -9.6778 17.4305
2163 1 -8.59958 -7.94567 -15.7925 -8.59958 -7.94567 18.2212
15352 1 -7.40962 -9.36367 -14.9814 26.6041 -9.36367 19.0323
2063 1 -5.10943 -8.8903 -16.2307 -5.10943 -8.8903 17.783
10137 1 -4.03896 -9.58252 -16.3063 -4.03896 -9.58252 -16.3063
3995 1 -1.66755 -8.9475 -15.8839 -1.66755 -8.9475 18.1298
10152 1 -4.54733 -0.531743 -10.61 -4.54733 -0.531743 -10.61
12128 1 -14.1952 -7.40464 -15.9828 -14.1952 -7.40464 -15.9828
1378 1 -13.8498 -9.021 -16.1141 -13.8498 -9.021 -16.1141
7011 1 -16.874 -11.2602 -4.63444 -16.874 22.7535 -4.63444
7013 1 -12.5112 -7.02061 -16.5529 -12.5112 26.9931 17.4608
12672 1 -9.62668 -7.16159 -15.7123 24.387 -7.16159 -15.7123
7263 1 -7.38213 -7.71329 -15.9782 -7.38213 26.3004 18.0355
13515 1 -5.34168 -7.69381 -14.6737 28.672 -7.69381 -14.6737
12813 1 -11.8012 -0.0776574 -6.50509 22.2125 -0.0776574 -6.50509
9916 1 -2.78491 -7.95611 -14.0503 -2.78491 -7.95611 -14.0503
7387 1 -2.95014 -8.76473 -16.6424 -2.95014 25.249 17.3713
15213 1 -2.83314 -6.87624 -16.7113 -2.83314 27.1375 17.3024
15421 1 -0.996705 -7.76234 -15.7457 -0.996705 26.2514 -15.7457
10391 1 -0.0778633 -1.41553 -14.7429 -0.0778633 -1.41553 -14.7429
4844 1 -10.2871 -16.7626 -1.0921 -10.2871 17.2512 -1.0921
5379 1 -16.1206 -7.26596 -16.3576 -16.1206 26.7477 -16.3576
2254 1 -16.6472 -5.71568 -16.0309 -16.6472 -5.71568 17.9828
9267 1 -13.2019 -6.00211 -16.3914 20.8118 -6.00211 -16.3914
4310 1 -15.4592 -6.25073 -15.7455 -15.4592 27.763 -15.7455
5410 1 -4.88223 -0.147169 -0.364107 -4.88223 -0.147169 -0.364107
13964 1 -12.5887 -5.17443 -16.5608 -12.5887 -5.17443 -16.5608
10912 1 -11.7839 -6.13211 -16.6955 22.2299 -6.13211 17.3183
704 1 -10.2533 -6.65464 -16.7569 -10.2533 -6.65464 -16.7569
2576 1 -0.917881 -16.7098 -1.65308 -0.917881 -16.7098 -1.65308
717 1 -3.06674 -5.05917 -0.525536 -3.06674 -5.05917 -0.525536
1321 1 -5.85622 -7.21219 -15.7388 -5.85622 -7.21219 -15.7388
9710 1 -4.88737 -0.406086 -4.47946 -4.88737 -0.406086 -4.47946
1666 1 -4.9733 -7.80841 -16.1653 -4.9733 -7.80841 -16.1653
10134 1 -4.59053 -6.78747 -16.6443 -4.59053 -6.78747 -16.6443
1707 1 -1.0438 -6.37241 -16.1628 -1.0438 -6.37241 -16.1628
1042 1 -9.65596 -0.758584 -1.40117 -9.65596 -0.758584 -1.40117
10886 1 -14.5549 -6.52648 -16.5737 19.4588 -6.52648 17.44
2288 1 -14.1673 -3.9827 -16.6501 -14.1673 -3.9827 17.3636
1241 1 -0.0678472 -14.9583 -12.0873 -34.0816 -14.9583 -12.0873
16358 1 -8.76534 -0.156622 -15.6024 25.2484 -0.156622 18.4113
13684 1 -13.6769 -3.97715 -15.2748 20.3368 -3.97715 -15.2748
14117 1 -9.18569 -5.83229 -16.3349 -9.18569 -5.83229 -16.3349
11830 1 -10.229 -4.94408 -15.068 23.7847 -4.94408 18.9457
7782 1 -9.63142 -3.54383 -15.2147 -9.63142 -3.54383 18.799
11190 1 -9.19162 -4.30998 -15.7022 -9.19162 -4.30998 18.3115
12771 1 -6.80195 -6.46856 -16.2507 -6.80195 27.5452 -16.2507
5432 1 -3.07377 -16.5561 -5.23717 -3.07377 17.4577 -5.23717
7149 1 -4.90763 -5.22676 -16.6344 -4.90763 -5.22676 17.3793
11361 1 -4.38313 -1.79265 -0.823132 -4.38313 -1.79265 -0.823132
5089 1 -2.70671 -4.29938 -14.6844 -2.70671 -4.29938 -14.6844
7837 1 -2.27272 -5.3016 -16.3756 -2.27272 -5.3016 17.6381
1589 1 -15.7968 -0.549908 -6.35354 -15.7968 -0.549908 -6.35354
13146 1 -16.4061 -3.96432 -16.1876 17.6076 -3.96432 -16.1876
15754 1 -14.1809 -2.67485 -15.6389 19.8328 -2.67485 18.3748
2906 1 -11.9 -2.75754 -15.9721 -11.9 -2.75754 18.0416
84 1 -11.7678 -4.39025 -16.5455 -11.7678 -4.39025 -16.5455
10909 1 -10.6527 -3.87706 -16.3999 23.361 -3.87706 17.6138
3495 1 -8.54291 -3.46916 -16.1982 -8.54291 -3.46916 17.8156
5081 1 -7.30127 -3.53464 -16.7401 -7.30127 -3.53464 -16.7401
1788 1 -4.92479 -4.18866 -16.1933 -4.92479 -38.2024 -16.1933
10407 1 -2.79475 -3.27082 -15.7887 -2.79475 -3.27082 -15.7887
11231 1 -3.97615 -3.79966 -16.4041 -3.97615 -3.79966 17.6096
2026 1 -4.57932 -3.03259 -15.7644 -4.57932 -37.0463 -15.7644
9082 1 -1.42341 -2.80933 -16.637 -1.42341 -2.80933 -16.637
9410 1 -16.4198 -2.79839 -15.8102 17.5939 -2.79839 -15.8102
15988 1 -16.9323 -16.8031 -14.4625 17.0814 -16.8031 19.5512
865 1 -15.2422 -3.32192 -16.3715 -15.2422 -3.32192 -16.3715
2366 1 -14.1744 -1.63794 -16.6544 -14.1744 -1.63794 17.3593
570 1 -12.7085 -3.6743 -16.3578 -12.7085 -3.6743 -16.3578
5131 1 -13.1768 -2.10618 -15.1875 -13.1768 -2.10618 -15.1875
3401 1 -10.488 -1.30816 -15.9207 -10.488 -1.30816 18.093
1279 1 -9.43085 -2.12545 -15.7623 -9.43085 -2.12545 -15.7623
14411 1 -7.36059 -1.71588 -14.8534 -7.36059 -1.71588 19.1603
9084 1 -0.106081 -8.52346 -11.4323 -0.106081 -8.52346 -11.4323
9361 1 -6.30313 -1.1657 -14.8034 -6.30313 -1.1657 -14.8034
12090 1 -6.56471 -1.76187 -15.9413 27.449 -1.76187 18.0724
7492 1 -5.31187 -1.9061 -15.8933 -5.31187 -1.9061 18.1204
3839 1 -3.65653 -2.43923 -14.9478 -3.65653 -2.43923 19.0659
11077 1 -15.9413 -16.7702 -3.54535 18.0724 -16.7702 30.4684
478 1 -2.22294 -2.03298 -16.6967 -2.22294 -36.0467 -16.6967
1472 1 -1.7347 -1.99696 -15.4076 -1.7347 -1.99696 -15.4076
953 1 -0.311405 -2.49864 -16.0107 -0.311405 -2.49864 -16.0107
16350 1 -15.2301 -2.11906 -16.3759 18.7836 -2.11906 17.6378
5524 1 -12.4785 -1.77548 -16.1514 -12.4785 -1.77548 -16.1514
14274 1 -8.97964 -16.5505 -1.7129 25.0341 17.4633 -1.7129
2291 1 -11.2167 -0.260133 -16.2575 -11.2167 -0.260133 17.7562
13752 1 -16.6455 -1.81593 -6.37736 17.3682 -1.81593 -6.37736
13268 1 -8.89479 -1.14059 -16.6363 -8.89479 -1.14059 -16.6363
1487 1 -7.46036 -2.15095 -16.5069 -7.46036 -2.15095 -16.5069
13096 1 -5.1083 -0.837155 -16.787 -5.1083 -0.837155 -16.787
6799 1 -5.24369 -0.713995 -15.6354 -5.24369 -0.713995 18.3783
12294 1 -1.36601 -1.06124 -16.5092 -1.36601 -1.06124 17.5045
4676 1 -3.61377 -0.316952 -16.2891 -3.61377 -0.316952 -16.2891
12326 1 -15.3985 -15.7091 -15.4278 18.6152 -15.7091 18.5859
13938 1 -12.8318 -10.1185 -0.219834 -12.8318 23.8952 -0.219834
7981 1 -15.0253 -14.8988 -14.8346 -15.0253 19.1149 19.1792
7687 1 -0.0342071 -3.03546 -4.05073 -0.0342071 -3.03546 -4.05073
13193 1 -13.1305 -16.2081 -14.2194 20.8832 17.8057 -14.2194
2064 1 -16.4558 -16.2889 -1.08831 -16.4558 -16.2889 -1.08831
12004 1 -11.7117 -16.664 -15.6625 22.3021 17.3497 18.3512
9994 1 -10.7357 -15.3701 -14.3461 23.278 -15.3701 -14.3461
3915 1 -16.8398 -15.432 -3.50423 -16.8398 -15.432 -3.50423
2298 1 -8.73908 -16.4309 -14.0112 -8.73908 -16.4309 20.0025
15998 1 -6.68292 -15.5255 -13.9225 -6.68292 -15.5255 20.0913
13151 1 -3.06609 -16.3513 -14.6846 -3.06609 17.6624 -14.6846
1661 1 -3.80452 -16.3496 -15.8822 -3.80452 -16.3496 -15.8822
10436 1 -0.582279 -15.0791 -8.29127 -0.582279 -15.0791 -8.29127
83 1 -0.0237619 -7.66982 -6.37018 -0.0237619 -7.66982 -6.37018
2114 1 -14.4838 -14.1614 -15.7176 -14.4838 -14.1614 18.2962
8786 1 -13.1424 -14.5482 -15.3182 20.8713 -14.5482 -15.3182
6463 1 -12.2667 -15.5387 -15.3755 -12.2667 18.475 18.6382
14619 1 -11.642 -14.4544 -14.9566 22.3717 19.5593 -14.9566
14994 1 -11.5173 -15.3838 -16.0768 22.4964 18.6299 17.9369
7751 1 -10.3135 -13.5097 -14.3164 -10.3135 20.504 19.6973
2162 1 -8.88004 -15.0275 -14.2939 -8.88004 -15.0275 19.7198
5482 1 -7.01155 -13.5145 -14.8952 -7.01155 20.4992 -14.8952
9102 1 -7.49628 -14.4908 -14.4178 -7.49628 -14.4908 -14.4178
4718 1 -7.05069 -15.0975 -15.6096 -7.05069 -15.0975 -15.6096
14307 1 -6.03738 -16.2483 -15.1424 27.9763 17.7655 -15.1424
1339 1 -5.6111 -14.6207 -15.2426 -5.6111 -14.6207 -15.2426
11359 1 -2.99511 -14.1803 -14.0439 -2.99511 -14.1803 19.9698
5413 1 -2.41301 -14.8527 -13.2878 -2.41301 19.161 -13.2878
15558 1 -2.34372 -15.5421 -14.6739 -2.34372 18.4716 19.3398
10084 1 -0.956537 -14.7188 -14.695 -0.956537 -14.7188 -14.695
9996 1 -0.377452 -15.7842 -14.8414 33.6363 -15.7842 -14.8414
8591 1 -14.6039 -0.538984 -10.1882 19.4098 -0.538984 -10.1882
9239 1 -16.2332 -12.4091 -15.0643 17.7805 21.6046 -15.0643
736 1 -14.4432 -12.5602 -14.898 -14.4432 -12.5602 -14.898
1414 1 -13.6359 -12.8646 -13.9116 -13.6359 -12.8646 -13.9116
2933 1 -12.4497 -13.9679 -13.5059 -12.4497 -13.9679 20.5078
6272 1 -11.7667 -13.4283 -15.9838 -11.7667 20.5855 18.0299
12676 1 -10.9346 -12.959 -15.0939 23.0791 21.0547 -15.0939
4829 1 -10.4749 -14.6645 -15.323 -10.4749 19.3492 -15.323
12208 1 -7.8663 -12.3735 -15.3034 26.1474 -12.3735 18.7103
15533 1 -6.58179 -13.4568 -16.2213 -6.58179 -13.4568 -16.2213
13970 1 -4.73214 -13.1807 -15.0662 -4.73214 -13.1807 -15.0662
618 1 -3.30438 -12.6701 -15.6452 -3.30438 -12.6701 -15.6452
7564 1 -2.1663 -13.2213 -14.695 -2.1663 20.7924 19.3187
5707 1 -0.809155 -13.4676 -14.8357 -0.809155 20.5461 -14.8357
730 1 -16.1223 -11.3137 -15.2725 -16.1223 -11.3137 -15.2725
4146 1 -12.9534 -12.3422 -15.2044 -12.9534 21.6715 -15.2044
3103 1 -15.7072 -12.9098 -14.0336 -15.7072 -12.9098 19.9801
3471 1 -11.4018 -12.2514 -16.2775 -11.4018 -12.2514 17.7362
8527 1 -10.6686 -11.2632 -14.0756 23.3452 -11.2632 -14.0756
12072 1 -9.90006 -11.9088 -14.301 24.1136 -11.9088 19.7127
6711 1 -11.9333 -12.6126 -14.4887 -11.9333 21.4011 19.525
3604 1 -8.99932 -10.3737 -13.8609 -8.99932 -10.3737 20.1528
4030 1 -6.50821 -12.0785 -14.1131 -6.50821 -12.0785 19.9006
13343 1 -4.30426 -11.1502 -15.6691 -4.30426 22.8636 -15.6691
2128 1 -1.07311 -11.8288 -16.0982 -1.07311 -11.8288 17.9155
516 1 -1.50575 -12.2374 -14.665 -1.50575 -12.2374 -14.665
10844 1 -0.584069 -11.2595 -13.7609 -0.584069 -11.2595 20.2528
8938 1 -15.482 -10.109 -15.8564 18.5317 -10.109 -15.8564
8825 1 -0.0780707 -12.9884 -8.65746 -0.0780707 -12.9884 -8.65746
11013 1 -15.1345 -8.88058 -14.8984 18.8793 -8.88058 19.1154
2868 1 -13.5432 -11.6494 -16.1919 -13.5432 -11.6494 17.8218
11950 1 -11.8361 -10.9711 -15.2861 22.1776 -10.9711 18.7276
1868 1 -14.6416 -9.94034 -13.9822 -14.6416 -9.94034 -13.9822
10702 1 -10.7574 -10.0902 -15.2876 -10.7574 -10.0902 18.7261
13170 1 -7.36137 -10.152 -14.0149 -7.36137 23.8617 -14.0149
6141 1 -7.42069 -11.0728 -14.881 -7.42069 22.941 19.1327
602 1 -5.23564 -11.4537 -14.5288 -5.23564 -11.4537 -14.5288
4665 1 -3.8664 -10.2902 -15.3393 -3.8664 23.7235 -15.3393
11018 1 -3.00429 -11.1265 -15.871 -3.00429 -11.1265 18.1427
10615 1 -2.07079 -10.4239 -14.128 -2.07079 -10.4239 19.8857
9355 1 -1.28659 -10.9852 -14.8419 -1.28659 -10.9852 19.1718
5723 1 -15.0376 -8.08306 -15.9106 -15.0376 25.9307 -15.9106
1228 1 -13.4799 -9.53562 -15.0001 -13.4799 -9.53562 -15.0001
4269 1 -10.9012 -9.04613 -15.5064 -10.9012 -9.04613 -15.5064
4413 1 -10.7015 -8.92797 -14.29 -10.7015 25.0857 -14.29
150 1 -9.9215 -10.6827 -14.959 -9.9215 -10.6827 -14.959
8711 1 -9.66629 -8.61491 -15.409 -9.66629 -8.61491 -15.409
9906 1 -8.75794 -9.71689 -14.9419 -8.75794 -9.71689 -14.9419
5116 1 -6.46383 -10.0602 -14.969 -6.46383 -10.0602 -14.969
3125 1 -5.11732 -8.85656 -15.1389 -5.11732 -8.85656 18.8748
2393 1 -3.38415 -8.93901 -15.2696 -3.38415 -8.93901 -15.2696
10790 1 -4.3368 -9.47424 -14.5152 -4.3368 -9.47424 19.4985
3082 1 -0.678477 -9.03827 -14.9597 -0.678477 -9.03827 19.054
1348 1 -16.021 -8.84336 -16.3632 -16.021 -8.84336 -16.3632
122 1 -8.10537 -5.02851 -16.3296 -8.10537 -5.02851 -16.3296
6452 1 -15.0278 -8.94077 -1.29756 -15.0278 -8.94077 -1.29756
189 1 -15.4132 -7.86615 -14.8874 -15.4132 -7.86615 -14.8874
8583 1 -12.9967 -8.24332 -15.5762 -12.9967 -8.24332 -15.5762
2381 1 -12.7424 -7.28468 -13.7968 -12.7424 -7.28468 20.2169
1070 1 -11.4601 -8.07589 -16.4473 -11.4601 -8.07589 -16.4473
12124 1 -10.8498 -7.98299 -14.9455 -10.8498 -7.98299 -14.9455
9539 1 -8.61258 -7.51216 -14.5124 -8.61258 -7.51216 -14.5124
1593 1 -8.601 -7.02511 -13.0164 -8.601 -7.02511 -13.0164
15403 1 -3.70594 -8.0587 -15.8549 -3.70594 -8.0587 18.1588
5203 1 -5.16023 -6.96866 -13.9469 -39.1739 -6.96866 -13.9469
7878 1 -5.3399 -8.79947 -13.3414 -5.3399 25.2142 20.6723
350 1 -1.76475 -8.05085 -14.7782 -1.76475 -8.05085 -14.7782
13720 1 -14.9933 -15.2863 -1.27358 19.0204 18.7274 -1.27358
1366 1 -16.1308 -6.95744 -14.8142 -16.1308 -6.95744 -14.8142
2832 1 -13.2535 -7.04427 -15.2379 -13.2535 -7.04427 18.7758
8388 1 -11.5089 -6.96761 -15.2882 -11.5089 -6.96761 -15.2882
2478 1 -10.6387 -6.50869 -14.5869 -10.6387 -6.50869 19.4268
1710 1 -11.434 -7.71064 -13.8925 -11.434 -7.71064 -13.8925
10453 1 -9.00323 -6.50808 -14.7565 25.0105 -6.50808 19.2573
13013 1 -8.10754 -6.23249 -15.8808 -8.10754 27.7812 -15.8808
13514 1 -7.84005 -5.43573 -14.62 -7.84005 -5.43573 -14.62
9939 1 -6.53825 -6.29243 -14.9269 -6.53825 -6.29243 -14.9269
11112 1 -7.79758 -8.06962 -14.7739 -7.79758 -8.06962 19.2398
8384 1 -5.62987 -5.88592 -14.1011 -5.62987 -5.88592 -14.1011
461 1 -4.08308 -8.27018 -14.4957 -4.08308 -8.27018 -14.4957
9034 1 -4.03722 -6.17469 -14.2344 -4.03722 -6.17469 -14.2344
10992 1 -3.43446 -6.41562 -15.7777 -3.43446 -6.41562 18.236
2242 1 -4.07906 -5.43701 -15.9215 -4.07906 -5.43701 18.0922
8968 1 -0.716146 -8.09173 -13.9828 -0.716146 -8.09173 -13.9828
8421 1 -2.52032 -7.18343 -15.2326 -2.52032 -7.18343 -15.2326
528 1 -14.7671 -4.78735 -16.5925 -14.7671 -4.78735 -16.5925
5891 1 -14.876 -5.7122 -15.0386 -14.876 -5.7122 -15.0386
3649 1 -13.482 -5.59592 -15.1382 -13.482 -5.59592 -15.1382
5221 1 -11.5318 -5.06567 -15.0505 -11.5318 28.948 18.9632
224 1 -14.3589 -5.88516 -13.7016 -14.3589 -5.88516 -13.7016
4849 1 -11.0196 -4.05757 -14.0285 -11.0196 29.9561 19.9852
11751 1 -9.2485 -5.41898 -14.6565 24.7652 -5.41898 19.3572
10875 1 -7.61303 -4.36881 -15.4755 26.4007 -4.36881 18.5383
12043 1 -5.85605 -5.60199 -15.8517 -5.85605 -5.60199 18.162
7029 1 -4.79419 -6.79735 -15.0242 -4.79419 27.2164 18.9895
11257 1 -4.45559 -4.62653 -14.7254 -4.45559 -4.62653 19.2883
16127 1 -1.82354 -6.07687 -15.3116 -1.82354 -6.07687 18.7021
3546 1 -15.7627 -4.99337 -15.2465 -15.7627 -4.99337 -15.2465
16163 1 -15.8241 -3.62797 -14.9349 18.1896 -3.62797 19.0788
6725 1 -13.5351 -4.59721 -13.9623 -13.5351 -4.59721 20.0514
11087 1 -12.4581 -4.67324 -14.6563 -12.4581 -4.67324 19.3574
5332 1 -12.0142 -3.73007 -13.983 -12.0142 -3.73007 20.0307
13232 1 -11.3075 -2.5987 -14.9392 22.7063 -2.5987 -14.9392
7698 1 -10.9398 -3.6139 -15.083 -10.9398 -3.6139 18.9307
9624 1 -8.58981 -2.82726 -14.5278 25.4239 -2.82726 -14.5278
5974 1 -8.37466 -4.5433 -14.224 -8.37466 -4.5433 -14.224
3147 1 -7.61337 -2.88041 -15.3776 -7.61337 -2.88041 18.6361
14071 1 -5.43839 -4.42789 -15.1177 -5.43839 29.5858 -15.1177
762 1 -6.05799 -3.32491 -16.3425 -6.05799 -3.32491 -16.3425
9145 1 -4.19725 -3.67381 -14.9819 -4.19725 -3.67381 -14.9819
7710 1 -2.12359 -2.98571 -14.9673 -2.12359 -2.98571 19.0464
3970 1 -1.51214 -4.4639 -16.5746 -1.51214 -4.4639 17.4391
12429 1 -0.821536 -4.74758 -15.7539 -0.821536 29.2661 -15.7539
554 1 -16.616 -2.62625 -14.5082 -16.616 -2.62625 -14.5082
1383 1 -15.2332 -2.31205 -15.095 -15.2332 -2.31205 -15.095
5076 1 -13.928 -2.5581 -14.355 -13.928 31.4556 -14.355
9365 1 -14.1633 -1.56731 -15.2967 -14.1633 -1.56731 -15.2967
3855 1 -9.98876 -2.7505 -14.458 -9.98876 -2.7505 19.5557
5352 1 -9.20024 -3.39444 -13.5917 -9.20024 -3.39444 -13.5917
3805 1 -8.36797 -1.531 -14.3252 -8.36797 -1.531 19.6885
8871 1 -6.58149 -2.71277 -14.664 27.4322 -2.71277 -14.664
8515 1 -5.48177 -3.17369 -15.1481 28.5319 -3.17369 -15.1481
3286 1 -4.99012 -1.81142 -14.2112 -4.99012 -1.81142 -14.2112
4790 1 -2.37708 -0.571626 -15.7384 -2.37708 -0.571626 -15.7384
2980 1 -1.33323 -1.32074 -14.5334 -1.33323 -1.32074 -14.5334
14299 1 -1.12323 -2.81242 -14.4292 -1.12323 -2.81242 -14.4292
5315 1 -16.2528 -1.07216 -15.8004 -16.2528 -1.07216 -15.8004
12753 1 -15.4585 -0.747148 -14.9917 18.5553 -0.747148 -14.9917
7971 1 -7.88729 -3.58299 -0.668214 -7.88729 -3.58299 -0.668214
15392 1 -14.7112 -0.381315 -13.4634 19.3025 -0.381315 20.5503
8736 1 -12.2576 -1.48367 -14.3098 21.7561 -1.48367 -14.3098
12986 1 -11.8391 -0.824613 -15.5643 -11.8391 -0.824613 -15.5643
5678 1 -10.6291 -0.504474 -15.1372 -10.6291 -0.504474 -15.1372
1336 1 -10.3367 -1.54775 -14.299 -10.3367 -1.54775 -14.299
6925 1 -9.2209 -1.08747 -15.0894 -9.2209 32.9262 18.9243
1122 1 -8.38897 -2.54195 -0.0988309 -8.38897 -2.54195 -0.0988309
14727 1 -8.7981 -0.0886217 -14.2155 -8.7981 -0.0886217 -14.2155
2191 1 -7.19839 -0.136963 -14.8865 -7.19839 -0.136963 19.1272
8063 1 -6.06391 -0.896329 -13.6482 -6.06391 -0.896329 20.3655
12024 1 -3.45398 -1.63083 -15.86 -3.45398 -1.63083 18.1537
14550 1 -6.42757 -0.42774 -16.1925 -6.42757 -0.42774 17.8212
3835 1 -4.11931 -0.976266 -14.9864 -4.11931 -0.976266 19.0273
10664 1 -5.53356 -11.1367 -16.9065 28.4801 -11.1367 17.1072
2490 1 -6.56182 -8.15827 -16.5003 -6.56182 -8.15827 17.5134
4322 1 -15.4527 -16.0729 -13.34 -15.4527 17.9408 -13.34
4859 1 -16.6383 -15.6476 -13.9209 -16.6383 18.3661 -13.9209
1625 1 -14.4152 -16.1593 -13.7247 -14.4152 -16.1593 -13.7247
8731 1 -0.200257 -0.2231 -10.885 -0.200257 -0.2231 -10.885
8672 1 -0.810541 -0.465558 -4.6342 -0.810541 -0.465558 -4.6342
13539 1 -16.7757 -15.5882 -9.16167 17.238 -15.5882 -9.16167
7613 1 -9.83833 -15.9059 -13.9221 -9.83833 18.1078 20.0917
2544 1 -3.12691 -2.49044 -2.40676 -3.12691 -36.5041 -2.40676
11513 1 -4.95438 -16.2279 -14.1488 -4.95438 -16.2279 19.8649
8838 1 -3.85971 -15.2934 -14.3343 -3.85971 -15.2934 -14.3343
804 1 -1.58113 -16.4311 -15.0402 -1.58113 -16.4311 -15.0402
6969 1 -2.20025 -16.1711 -13.6071 -2.20025 17.8427 20.4066
6998 1 -1.14575 -0.287753 -1.41437 -1.14575 -0.287753 -1.41437
8192 1 -16.5868 -13.8137 -13.533 -16.5868 20.2 20.4807
7800 1 -15.4063 -13.6602 -14.702 -15.4063 20.3535 19.3118
1739 1 -14.4013 -15.206 -12.7614 -14.4013 -15.206 -12.7614
2910 1 -13.0981 -16.2605 -12.6746 -13.0981 -16.2605 21.3391
6369 1 -11.62 -16.1564 -14.3825 -11.62 17.8573 19.6312
1514 1 -13.4146 -14.5091 -13.963 -13.4146 -14.5091 -13.963
8535 1 -11.1875 -15.3351 -13.2887 -11.1875 -15.3351 -13.2887
4321 1 -9.0655 -14.4091 -13.2234 -9.0655 -14.4091 -13.2234
1997 1 -8.74037 -15.32 -12.435 -8.74037 -15.32 -12.435
321 1 -5.07976 -15.1754 -13.9708 -5.07976 -15.1754 -13.9708
6420 1 -7.89511 -15.6045 -13.326 -7.89511 18.4092 20.6877
856 1 -5.7403 -16.1343 -12.7463 -39.754 -16.1343 -12.7463
6016 1 -4.01254 -15.9174 -13.1824 -4.01254 -15.9174 -13.1824
5291 1 -4.28841 -14.135 -14.2443 -4.28841 19.8787 -14.2443
2474 1 -3.46053 -15.1467 -12.0957 -3.46053 -15.1467 21.918
5612 1 -1.90526 -13.0628 -13.5921 -1.90526 20.9509 -13.5921
1229 1 -0.725623 -15.4146 -13.6386 -0.725623 -15.4146 -13.6386
15942 1 -17.0252 -12.9615 -12.11 16.9885 21.0522 -12.11
8847 1 -15.605 -13.5888 -12.5428 18.4087 -13.5888 -12.5428
16266 1 -14.4047 -13.9138 -13.4351 19.609 20.0999 -13.4351
305 1 -13.7166 -12.2747 -12.2683 -13.7166 -12.2747 -12.2683
12886 1 -11.2923 -13.5656 -13.2444 -11.2923 20.4481 -13.2444
12340 1 -7.84049 -13.7167 -12.1994 -7.84049 -13.7167 21.8143
14809 1 -9.23979 -12.9632 -15.1593 -9.23979 -12.9632 -15.1593
82 1 -7.16651 -13.4982 -13.4955 -7.16651 -13.4982 -13.4955
11234 1 -5.39431 -14.0434 -13.9604 -5.39431 -14.0434 20.0533
839 1 -3.52702 -12.8975 -14.5249 -3.52702 -12.8975 -14.5249
10628 1 -1.14361 -14.3293 -12.9579 -1.14361 -14.3293 21.0558
3882 1 -3.29351 -13.3192 -12.8212 -3.29351 -13.3192 -12.8212
1697 1 -8.038 -0.420536 -13.1168 -8.038 -0.420536 -13.1168
7695 1 -16.1244 -12.2593 -12.2332 -16.1244 21.7544 21.7805
921 1 -14.7011 -12.804 -13.1128 -14.7011 -12.804 -13.1128
1603 1 -14.0718 -11.7484 -13.9819 -14.0718 -11.7484 -13.9819
4814 1 -12.8241 -11.6258 -13.9196 -12.8241 22.3879 -13.9196
7956 1 -10.3862 -12.8429 -13.5074 -10.3862 21.1708 -13.5074
8960 1 -9.05372 -12.0721 -13.4776 24.96 -12.0721 -13.4776
312 1 -7.57198 -12.2799 -14.3383 -7.57198 -12.2799 19.6754
3070 1 -7.44046 -12.4349 -13.2378 -7.44046 -12.4349 20.7759
1798 1 -7.64341 -11.1441 -13.2901 -7.64341 -11.1441 -13.2901
7289 1 -6.06042 -12.3019 -13.0131 -6.06042 21.7118 21.0006
12295 1 -4.99454 -12.6548 -13.9763 -4.99454 -12.6548 20.0374
8214 1 -4.07077 -11.38 -14.3887 -4.07077 22.6337 19.625
12783 1 -2.92441 -12.1884 -13.9273 -2.92441 21.8253 -13.9273
10853 1 -4.42253 -12.0937 -12.8793 -4.42253 -12.0937 -12.8793
14498 1 -0.204312 -12.0429 -11.9178 -0.204312 -12.0429 22.096
7166 1 -0.625245 -12.5476 -13.2849 -34.639 21.4662 20.7288
8889 1 -1.98248 -12.0294 -12.9335 -1.98248 -12.0294 -12.9335
12609 1 -16.2995 -11.2478 -12.5371 17.7142 22.7659 -12.5371
888 1 -14.5565 -11.3079 -15.3127 -14.5565 -11.3079 -15.3127
14050 1 -12.6844 -10.489 -13.4917 21.3293 23.5247 20.522
10243 1 -13.2287 -10.7827 -14.5321 -13.2287 -10.7827 -14.5321
12058 1 -14.1577 -10.2738 -15.2073 19.856 -10.2738 18.8064
10385 1 -11.5756 -11.4562 -13.0609 22.4381 -11.4562 -13.0609
352 1 -8.41328 -8.89295 -14.2787 -8.41328 -8.89295 -14.2787
9636 1 -10.2931 -10.4144 -13.687 -10.2931 -10.4144 -13.687
15986 1 -5.85738 -11.0956 -13.2622 -5.85738 -11.0956 20.7515
3645 1 -5.93707 -9.87405 -13.9178 -5.93707 -9.87405 20.0959
6318 1 -4.65149 -10.0423 -13.4604 -4.65149 -10.0423 20.5534
8542 1 -3.5001 -11.1299 -13.2893 -3.5001 -11.1299 -13.2893
13987 1 -15.4016 -9.55172 -12.8649 18.6121 -9.55172 -12.8649
508 1 -16.2679 -10.1391 -15.0882 -16.2679 -10.1391 18.9255
5086 1 -14.3606 -8.54487 -13.7906 -14.3606 25.4688 20.2231
5597 1 -12.9018 -9.02557 -12.6815 -12.9018 24.9881 -12.6815
3263 1 -11.4031 -9.84257 -14.2188 -11.4031 -9.84257 19.7949
8841 1 -11.1214 -8.16454 -12.0903 22.8923 -8.16454 -12.0903
14101 1 -10.8629 -9.89357 -12.7823 -10.8629 24.1201 -12.7823
12785 1 -9.43214 -9.43554 -13.6675 -9.43214 -9.43554 -13.6675
320 1 -7.45299 -7.91844 -13.7881 -7.45299 -7.91844 -13.7881
2022 1 -7.90804 -9.19393 -13.3926 -7.90804 -9.19393 -13.3926
1109 1 -6.55778 -8.75361 -12.5937 -6.55778 -8.75361 -12.5937
5756 1 -6.48855 -8.5664 -14.629 -6.48855 25.4473 19.3847
2121 1 -1.8791 -9.88678 -13.0217 -1.8791 -9.88678 -13.0217
4474 1 -1.0192 -8.70057 -13.2361 -1.0192 25.3131 -13.2361
5446 1 -2.63932 -9.42142 -14.5029 -36.653 -9.42142 -14.5029
3355 1 -0.790329 -10.0112 -14.0191 -0.790329 -10.0112 19.9946
9819 1 -16.0469 -9.23634 -13.8929 17.9668 -9.23634 -13.8929
3951 1 -13.8365 -8.27227 -14.6989 -13.8365 -8.27227 19.3148
15695 1 -15.5839 -7.65991 -13.4679 18.4298 26.3538 20.5459
2761 1 -16.4302 -7.52429 -13.9948 -16.4302 -7.52429 -13.9948
4316 1 -13.4382 -8.10967 -13.5459 -13.4382 25.904 -13.5459
8777 1 -12.0101 -6.58855 -14.2948 -12.0101 -6.58855 19.7189
15720 1 -11.8073 -8.45887 -13.0847 22.2064 -8.45887 20.929
1145 1 -12.4815 -8.44111 -14.3917 -12.4815 -8.44111 -14.3917
3748 1 -10.6118 -8.50722 -13.0139 -10.6118 -8.50722 20.9998
791 1 -9.43668 -8.08684 -14.2208 -9.43668 -8.08684 -14.2208
9089 1 -9.66513 -7.06648 -13.4646 -9.66513 -7.06648 -13.4646
8340 1 -8.03748 -8.23191 -12.2479 -8.03748 -8.23191 -12.2479
452 1 -5.11602 -8.31775 -12.4304 -5.11602 -8.31775 -12.4304
1831 1 -3.15134 -8.85577 -13.2957 -3.15134 -8.85577 -13.2957
9990 1 -1.96493 -7.83546 -13.4857 -1.96493 -7.83546 -13.4857
9579 1 -0.620358 -9.87094 -12.483 -0.620358 -9.87094 -12.483
12175 1 -16.9029 -5.9091 -13.855 17.1108 -5.9091 20.1587
7783 1 -16.1949 -8.20148 -12.6254 -16.1949 25.8122 -12.6254
7447 1 -14.3993 -7.14621 -14.0948 -14.3993 -7.14621 19.9189
5627 1 -15.3289 -6.24014 -14.0722 -15.3289 -6.24014 -14.0722
11955 1 -13.7161 -6.98058 -12.5465 -13.7161 -6.98058 21.4672
12483 1 -10.3957 -5.83798 -13.4503 -10.3957 -5.83798 -13.4503
8225 1 -8.55345 -5.89278 -13.5591 -8.55345 -5.89278 -13.5591
7035 1 -7.53342 -6.40324 -13.6703 -7.53342 27.6105 20.3434
1012 1 -6.75437 -7.47053 -14.8876 -6.75437 -7.47053 -14.8876
2075 1 -4.12841 -7.62161 -13.1013 -4.12841 -7.62161 20.9124
5143 1 -1.12861 -7.142 -14.2646 -1.12861 -7.142 -14.2646
3114 1 -2.76939 -5.75953 -14.6413 -2.76939 -5.75953 -14.6413
5230 1 -2.39771 -4.77074 -13.7977 -2.39771 -4.77074 -13.7977
4062 1 -0.873443 -4.81531 -13.2871 -0.873443 -4.81531 -13.2871
1677 1 -1.56602 -5.88488 -13.3208 -1.56602 -5.88488 -13.3208
468 1 -16.457 -4.53902 -12.7244 -16.457 -4.53902 -12.7244
13312 1 -15.1364 -4.65373 -14.1946 18.8773 -4.65373 -14.1946
5137 1 -13.6363 -4.7959 -12.4805 -13.6363 -4.7959 -12.4805
9544 1 -6.80654 -4.89962 -13.4278 -6.80654 -4.89962 -13.4278
9593 1 -7.75106 -4.09244 -11.8791 26.2627 -4.09244 -11.8791
8459 1 -6.45722 -4.062 -14.7093 -6.45722 -4.062 -14.7093
8984 1 -4.79314 -5.66878 -13.0496 -4.79314 -5.66878 -13.0496
1741 1 -5.50928 -4.08254 -13.9431 -5.50928 -38.0963 -13.9431
7702 1 -3.04639 -5.9415 -13.2717 -3.04639 -5.9415 20.742
3078 1 -4.40068 -4.58422 -13.3533 -4.40068 -4.58422 -13.3533
1606 1 -1.6794 -4.91445 -15.123 -1.6794 -4.91445 -15.123
9620 1 -16.0187 -3.94458 -13.9031 17.995 -3.94458 -13.9031
4904 1 -14.115 -3.48037 -13.6818 -14.115 -3.48037 -13.6818
1527 1 -12.872 -3.97469 -12.8774 -12.872 -3.97469 -12.8774
10268 1 -12.3531 -5.51154 -12.6576 21.6606 -5.51154 -12.6576
4403 1 -11.6376 -2.49246 -13.6886 -11.6376 -2.49246 -13.6886
622 1 -10.2907 -4.04936 -13.2595 -10.2907 -4.04936 -13.2595
10506 1 -9.06239 -4.25929 -13.1116 24.9513 -4.25929 20.9021
5220 1 -7.43395 -3.48 -14.0506 -7.43395 -3.48 -14.0506
4386 1 -3.97537 -2.99681 -13.9511 -3.97537 -2.99681 -13.9511
8961 1 -5.14543 -3.04904 -12.3126 -5.14543 -3.04904 -12.3126
476 1 -3.4214 -4.5784 -13.7334 -3.4214 -4.5784 -13.7334
5317 1 -2.13926 -3.2031 -13.6787 -2.13926 -3.2031 -13.6787
8322 1 -2.09219 -3.93019 -12.8167 -2.09219 -3.93019 -12.8167
15544 1 -0.672208 -3.6847 -13.4612 -0.672208 -3.6847 20.5525
233 1 -13.5503 -1.86873 -13.5445 -13.5503 -1.86873 -13.5445
341 1 -12.3912 -1.31489 -12.0706 -12.3912 -1.31489 -12.0706
3574 1 -12.99 -3.00345 -13.7145 -12.99 -3.00345 20.2992
14073 1 -10.7464 -2.19974 -13.061 -10.7464 -2.19974 -13.061
2727 1 -9.98912 -2.83114 -12.5127 -9.98912 -2.83114 -12.5127
5087 1 -7.86363 -4.13304 -13.024 -7.86363 -4.13304 -13.024