ITEM: TIMESTEP
8500
ITEM: NUMBER OF ATOMS
16384
ITEM: BOX BOUNDS pp pp pp
-1.7006855707231768e+01 1.7006855707231768e+01
-1.7006855707231768e+01 1.7006855707231768e+01
-1.7006855707231768e+01 1.7006855707231768e+01
ITEM: ATOMS id type x y z xu yu zu
15495 1 -16.6735 -16.2176 -15.708 17.3402 17.7961 18.3058
10801 1 -14.3531 -16.1648 -16.7846 19.6606 17.8489 17.2292
10387 1 -12.7344 -16.4441 -15.1577 21.2793 -16.4441 18.856
12676 1 -11.6107 -15.6895 -15.7424 22.403 18.3242 -15.7424
15997 1 -9.94054 -16.1457 -16.1208 -9.94054 17.868 17.8929
13949 1 -0.2115 -14.7832 -2.20262 -0.2115 19.2305 -2.20262
1461 1 -7.80643 -15.9137 -16.9071 -7.80643 -15.9137 -16.9071
15205 1 -5.92894 -15.9656 -16.5054 28.0848 18.0481 17.5083
1970 1 -6.84828 -14.5731 -16.3508 -6.84828 -14.5731 -16.3508
15536 1 -3.35238 -15.8743 -15.8346 -3.35238 18.1395 -15.8346
139 1 -0.109036 -10.6398 -2.79886 -0.109036 -10.6398 -2.79886
5809 1 -0.812516 -16.4033 -16.343 -0.812516 17.6104 -16.343
5037 1 -15.6017 -14.9803 -16.5485 -15.6017 19.0334 17.4652
3722 1 -14.6583 -13.798 -17.0043 -14.6583 -13.798 17.0094
13193 1 -13.3709 -15.7723 -16.2353 20.6428 18.2414 -16.2353
2114 1 -14.006 -14.3155 -15.9503 -14.006 -14.3155 18.0634
14994 1 -12.3706 -14.4651 -15.9466 21.6431 19.5486 18.0671
1327 1 -12.2086 -16.0558 -16.6195 -12.2086 -16.0558 -16.6195
7734 1 -10.7342 -14.9498 -16.2788 -10.7342 19.0639 17.7349
6420 1 -8.26368 -15.0939 -16.0356 -8.26368 18.9199 17.9781
4379 1 -12.5161 -16.9902 -5.49637 -12.5161 17.0236 28.5173
128 1 -2.06278 -0.502612 -8.25921 -2.06278 -34.5163 -8.25921
12056 1 -5.24742 -14.576 -15.6654 -5.24742 19.4377 18.3484
2111 1 -7.97797 -0.272681 -8.495 -7.97797 -0.272681 25.5187
15480 1 -0.927904 -14.4999 -15.3407 -0.927904 19.5138 18.673
4910 1 -15.3131 -13.2725 -15.9885 -15.3131 -13.2725 -15.9885
13560 1 -4.51898 -0.892026 -15.9873 -4.51898 -0.892026 -15.9873
14247 1 -13.3328 -13.2195 -16.5798 -13.3328 20.7942 -16.5798
9503 1 -11.6546 -14.0625 -16.8241 22.3591 -14.0625 -16.8241
9102 1 -8.59772 -13.669 -15.9566 -8.59772 -13.669 -15.9566
1048 1 -6.17101 -13.5343 -16.3539 -6.17101 -13.5343 -16.3539
11401 1 -5.59062 -11.5082 -16.2044 -5.59062 -11.5082 17.8093
10478 1 -3.22787 -14.1865 -15.9577 -3.22787 -14.1865 18.056
7864 1 -4.50342 -13.636 -15.8526 -4.50342 20.3777 18.1611
9992 1 -0.876981 -12.9478 -16.8024 33.1367 -12.9478 -16.8024
2376 1 -0.182992 -13.6061 -15.9591 -0.182992 -13.6061 18.0546
1363 1 -15.8084 -11.8408 -16.4193 -15.8084 -11.8408 -16.4193
15178 1 -14.2797 -12.7511 -16.1704 19.734 21.2627 17.8433
9359 1 -12.2682 -12.4169 -16.6328 21.7455 -12.4169 -16.6328
3531 1 -10.8963 -12.1978 -16.7839 -10.8963 -12.1978 17.2299
8774 1 -11.5318 -12.9871 -16.1855 -11.5318 -12.9871 -16.1855
5482 1 -9.67184 -12.4033 -16.3039 -9.67184 21.6105 -16.3039
4144 1 -2.35965 -0.613991 -9.44069 -2.35965 -0.613991 -9.44069
3906 1 -8.25259 -12.5876 -16.0148 -8.25259 -12.5876 17.9989
12680 1 -6.91785 -12.226 -15.9122 -6.91785 21.7877 -15.9122
3934 1 -4.57435 -12.2986 -15.8802 -4.57435 -12.2986 18.1335
618 1 -3.80037 -11.8201 -16.7028 -3.80037 -11.8201 -16.7028
5707 1 -3.0621 -12.8969 -16.2184 -3.0621 21.1168 -16.2184
989 1 -2.39554 -11.6405 -16.5723 -2.39554 -11.6405 -16.5723
6397 1 -1.80929 -12.8822 -15.866 -1.80929 21.1315 18.1477
610 1 -8.83911 -16.6572 -3.90623 -8.83911 -16.6572 -3.90623
888 1 -13.7379 -10.701 -17.0047 -13.7379 -10.701 -17.0047
11319 1 -12.7231 -10.5612 -16.5682 21.2906 -10.5612 17.4455
14050 1 -12.1218 -11.6393 -15.463 21.8919 22.3744 18.5508
4814 1 -11.3234 -10.832 -16.2729 -11.3234 23.1817 -16.2729
1281 1 -10.2155 -10.0855 -16.2644 -10.2155 -10.0855 -16.2644
2449 1 -8.97526 -10.8811 -16.4089 -8.97526 -10.8811 17.6049
7432 1 -9.06244 -9.4571 -16.3801 -9.06244 24.5566 17.6336
13612 1 -7.23262 -10.2064 -16.7479 26.7811 -10.2064 -16.7479
12802 1 -16.9461 -6.12655 -7.33063 17.0676 -6.12655 -7.33063
3698 1 -10.1636 -0.026137 -0.802671 -10.1636 -0.026137 -0.802671
7597 1 -0.482472 -0.154176 -1.11439 -0.482472 -0.154176 -1.11439
130 1 -4.88625 -10.7806 -16.3262 -4.88625 -10.7806 -16.3262
11063 1 -2.65785 -10.19 -15.4917 -2.65785 -10.19 18.522
10952 1 -0.625095 -10.9908 -15.7138 -0.625095 -10.9908 18.2999
7396 1 -1.04344 -0.21628 -8.9435 -1.04344 -0.21628 25.0702
4276 1 -15.9971 -9.72848 -15.5549 -15.9971 24.2852 -15.5549
12058 1 -13.4524 -9.53774 -16.0307 20.5614 -9.53774 17.9831
8938 1 -15.4108 -9.22655 -16.4322 18.6029 -9.22655 -16.4322
5362 1 -11.3615 -0.268491 -0.346017 -11.3615 -0.268491 -0.346017
1145 1 -11.8514 -9.68166 -15.6418 -11.8514 -9.68166 -15.6418
3705 1 -0.2218 -12.846 -7.07183 -0.2218 -12.846 -7.07183
12726 1 -11.319 -9.38904 -16.7186 22.6947 24.6247 -16.7186
8965 1 -9.44289 -8.424 -15.6136 24.5708 -8.424 -15.6136
948 1 -8.05925 -9.03256 -15.9883 -8.05925 -9.03256 -15.9883
6129 1 -5.9812 -8.97355 -15.899 -5.9812 -8.97355 18.1147
13965 1 -16.9517 -11.3867 -3.84795 17.062 22.627 -3.84795
1464 1 -3.85375 -10.0688 -16.6491 -3.85375 -10.0688 -16.6491
8548 1 -1.45467 -10.3047 -16.2412 -1.45467 -10.3047 -16.2412
2393 1 -2.27161 -9.72314 -16.3672 -2.27161 -9.72314 -16.3672
11923 1 -0.738079 -8.99278 -16.5347 -0.738079 -8.99278 -16.5347
1348 1 -16.722 -8.74205 -15.6179 -16.722 -8.74205 -15.6179
2256 1 -16.1147 -7.19242 -15.4683 -16.1147 -7.19242 18.5454
4794 1 -16.9312 -16.2425 -14.4449 -16.9312 17.7713 -14.4449
9400 1 -15.1134 -7.84388 -16.2912 18.9003 -7.84388 17.7225
11013 1 -14.079 -7.70752 -15.7496 19.9347 -7.70752 18.2641
11614 1 -13.7808 -6.25519 -16.0209 20.2329 -6.25519 17.9928
704 1 -11.9118 -8.58945 -15.8536 -11.9118 -8.58945 -15.8536
702 1 -10.6914 -8.65276 -15.5703 -10.6914 -8.65276 -15.5703
324 1 -9.52083 -7.20625 -16.3976 -9.52083 -7.20625 -16.3976
7263 1 -8.10911 -7.86387 -16.3625 -8.10911 26.1498 17.6512
7029 1 -5.99567 -8.07315 -16.4966 -5.99567 25.9406 17.5172
10134 1 -6.93752 -7.84569 -15.8727 -6.93752 -7.84569 -15.8727
5446 1 -4.86405 -7.40742 -15.7725 -38.8778 -7.40742 -15.7725
9120 1 -0.0155964 -5.3792 -5.24554 -0.0155964 -5.3792 -5.24554
1666 1 -3.7318 -8.76039 -15.88 -3.7318 -8.76039 -15.88
15213 1 -2.32032 -7.88293 -16.6404 -2.32032 26.1308 17.3733
15421 1 -1.06122 -8.00217 -16.26 -1.06122 26.0115 -16.26
560 1 -0.159512 -13.2712 -8.41322 -0.159512 -13.2712 -8.41322
528 1 -15.967 -6.36409 -16.6068 -15.967 -6.36409 -16.6068
4087 1 -16.9274 -15.5178 -12.9677 -16.9274 18.4959 -12.9677
865 1 -13.1232 -5.12037 -15.284 -13.1232 -5.12037 -15.284
6369 1 -10.3997 -16.9696 -13.7594 -10.3997 17.0441 20.2543
14187 1 -8.99324 -5.88306 -16.5219 25.0205 -5.88306 -16.5219
14469 1 -7.1 -6.77192 -15.582 26.9137 27.2418 -15.582
3621 1 -6.62056 -16.9286 -6.48945 -6.62056 -16.9286 27.5243
461 1 -3.99244 -5.92139 -16.7022 -3.99244 -5.92139 -16.7022
5143 1 -2.5391 -5.60962 -16.4658 -2.5391 -5.60962 -16.4658
12429 1 -1.78668 -6.91777 -16.6558 -1.78668 27.0959 -16.6558
5727 1 -12.2577 -6.92569 -16.729 -12.2577 -6.92569 -16.729
13312 1 -16.4097 -5.13772 -16.4637 17.604 -5.13772 -16.4637
6882 1 -12.0367 -16.8523 -11.0601 -12.0367 17.1614 -11.0601
2288 1 -14.5058 -5.1764 -15.8189 -14.5058 -5.1764 18.1948
10912 1 -13.2471 -4.30548 -16.3285 20.7666 -4.30548 17.6852
1867 1 -10.7973 -4.93685 -16.121 -10.7973 -4.93685 -16.121
14227 1 -9.66129 -4.97332 -16.9108 24.3524 -4.97332 -16.9108
12459 1 -7.61737 -4.50053 -16.7828 -7.61737 29.5132 -16.7828
11415 1 -6.27975 -6.07108 -16.2985 27.734 -6.07108 17.7152
762 1 -6.00938 -4.80853 -16.0337 -6.00938 -4.80853 -16.0337
2242 1 -4.36182 -4.75631 -16.9165 -4.36182 -4.75631 17.0972
9145 1 -3.17993 -4.51451 -16.0408 -3.17993 -4.51451 -16.0408
9314 1 -1.33213 -4.4224 -15.9373 -1.33213 -4.4224 -15.9373
1606 1 -0.586964 -3.53645 -15.6002 -0.586964 -3.53645 -15.6002
1707 1 -0.987798 -5.90475 -16.4907 -0.987798 -5.90475 -16.4907
9410 1 -16.4684 -3.74948 -16.3879 17.5453 -3.74948 -16.3879
16163 1 -15.274 -4.18839 -16.6057 18.7397 -4.18839 17.408
1383 1 -15.3321 -2.75076 -16.6489 -15.3321 -2.75076 -16.6489
10814 1 -12.8036 -2.67619 -16.289 21.2101 -2.67619 -16.289
7698 1 -11.8843 -3.55086 -16.4845 -11.8843 -3.55086 17.5292
84 1 -10.2482 -3.75691 -15.5336 -10.2482 -3.75691 -15.5336
1279 1 -8.81043 -4.2777 -16.737 -8.81043 -4.2777 -16.737
5081 1 -7.01867 -3.8272 -15.6804 -7.01867 -3.8272 -15.6804
15400 1 -16.218 -0.245336 -13.0068 17.7957 -0.245336 21.007
2560 1 -3.82137 -3.52573 -16.5691 -3.82137 -3.52573 17.4446
3970 1 -2.60042 -3.82153 -16.6288 -2.60042 -3.82153 17.3849
2980 1 -1.26389 -2.50527 -15.8059 -1.26389 -2.50527 -15.8059
15607 1 -15.4336 -1.40742 -15.9808 18.5802 -1.40742 18.0329
2701 1 -14.1087 -1.60665 -16.7469 -14.1087 -1.60665 17.2668
5524 1 -11.8405 -1.89271 -16.2334 -11.8405 -1.89271 -16.2334
2906 1 -10.7186 -2.18343 -16.9341 -10.7186 -2.18343 17.0796
3795 1 -9.62717 -1.48949 -16.9541 -9.62717 -1.48949 17.0597
14550 1 -8.9528 -2.55969 -16.4606 -8.9528 -2.55969 17.5532
16358 1 -8.05815 -1.8571 -15.8679 25.9556 -1.8571 18.1459
12222 1 -6.85107 -2.72463 -16.6695 -6.85107 -2.72463 17.3442
8871 1 -4.81694 -2.8751 -16.6993 29.1968 -2.8751 -16.6993
2026 1 -3.59962 -2.66851 -15.355 -3.59962 -36.6822 -15.355
3835 1 -3.62039 -1.30444 -15.5878 -3.62039 -1.30444 18.4259
1047 1 -2.20137 -2.70929 -16.8002 -2.20137 -2.70929 -16.8002
13684 1 -16.7828 -1.1045 -16.4283 17.2309 -1.1045 -16.4283
11718 1 -16.855 -3.10598 -7.58524 17.1587 -3.10598 26.4285
15693 1 -13.7949 -0.0223534 -3.85204 20.2188 -0.0223534 -3.85204
4762 1 -12.5348 -0.377434 -16.3245 -12.5348 -0.377434 -16.3245
892 1 -10.6605 -1.23179 -15.8317 -10.6605 -1.23179 -15.8317
4609 1 -7.08099 -0.157182 -1.80232 -7.08099 -0.157182 -1.80232
64 1 -8.80282 -1.05185 -16.2526 -8.80282 -1.05185 -16.2526
3495 1 -9.5823 -0.46405 -15.8784 -9.5823 -0.46405 18.1354
684 1 -7.35419 -1.04759 -15.6263 -7.35419 -1.04759 -15.6263
10086 1 -6.32896 -0.573579 -16.9147 -6.32896 -0.573579 -16.9147
3286 1 -5.52266 -0.400355 -15.6892 -5.52266 -0.400355 -15.6892
11849 1 -2.28318 -0.155552 -16.3577 31.7305 -0.155552 17.656
953 1 -1.00122 -0.840488 -16.4563 -1.00122 -0.840488 -16.4563
12326 1 -15.7454 -15.7207 -15.2463 18.2683 -15.7207 18.7674
8336 1 -0.128989 -2.32236 -1.29166 -0.128989 -2.32236 -1.29166
2101 1 -14.7086 -16.1494 -15.3939 -14.7086 -16.1494 18.6198
661 1 -13.9438 -16.3212 -14.5175 -13.9438 -16.3212 -14.5175
6576 1 -0.278158 -7.32299 -1.19056 -0.278158 -7.32299 -1.19056
3418 1 -11.3415 -15.9066 -14.463 -11.3415 -15.9066 19.5507
4829 1 -10.4104 -15.8397 -15.014 -10.4104 18.174 -15.014
854 1 -16.8004 -8.36902 -1.53021 -16.8004 -8.36902 -1.53021
7751 1 -8.8348 -16.1347 -14.9188 -8.8348 17.879 19.0949
2298 1 -7.86995 -16.9733 -14.0739 -7.86995 -16.9733 19.9399
1690 1 -7.16411 -15.9337 -15.6029 -7.16411 18.08 -15.6029
9278 1 -6.62843 -16.5512 -14.5718 -6.62843 -16.5512 -14.5718
8309 1 -16.1174 -5.97494 -0.449512 17.8963 -5.97494 -0.449512
4519 1 -5.37507 -15.8936 -15.3145 -5.37507 18.1201 -15.3145
16084 1 -4.08679 -16.1517 -14.7238 -4.08679 17.862 19.2899
11914 1 -3.67766 -14.9867 -13.8196 -3.67766 -14.9867 20.1941
4616 1 -1.34119 -15.9642 -15.3867 -1.34119 18.0495 -15.3867
12874 1 -1.87162 -15.7034 -0.0340149 -1.87162 18.3103 -0.0340149
12844 1 -15.7464 -14.9131 -14.2047 18.2673 19.1007 -14.2047
7981 1 -15.6388 -14.3747 -15.2954 -15.6388 19.639 18.7183
8535 1 -14.4224 -15.229 -14.4514 -14.4224 -15.229 -14.4514
8786 1 -13.8609 -14.3142 -14.776 20.1528 -14.3142 -14.776
921 1 -12.6125 -15.2047 -14.9626 -12.6125 -15.2047 -14.9626
14619 1 -11.426 -14.3758 -14.7385 22.5877 19.6379 -14.7385
7688 1 -9.0482 -15.1368 -14.0461 -9.0482 -15.1368 19.9676
5235 1 -7.83444 -15.5175 -14.6044 -7.83444 -15.5175 -14.6044
3745 1 -7.86248 -13.5002 -14.6802 -7.86248 -13.5002 19.3335
15814 1 -6.47022 -14.6603 -15.0281 -6.47022 19.3534 18.9856
1661 1 -3.87543 -15.08 -15.1534 -3.87543 -15.08 -15.1534
10628 1 -2.11023 -15.3689 -15.9303 -2.11023 -15.3689 18.0834
10502 1 -0.737236 -15.0097 -14.1115 33.2765 -15.0097 19.9023
10378 1 -16.9537 -14.087 -15.357 17.0601 -14.087 18.6567
7800 1 -16.1286 -12.6205 -15.4284 -16.1286 21.3932 18.5853
8453 1 -14.9803 -13.9284 -14.3624 19.0334 -13.9284 -14.3624
6463 1 -12.493 -13.8872 -15.0476 -12.493 20.1266 18.9662
10862 1 -11.0615 -13.607 -13.6165 22.9522 -13.607 20.3973
13995 1 -10.482 -13.5787 -15.9062 -10.482 20.435 -15.9062
4246 1 -9.42626 -15.0672 -15.5817 -9.42626 18.9465 -15.5817
10048 1 -6.92861 -12.8307 -14.954 -6.92861 -12.8307 -14.954
910 1 -4.23989 -13.8127 -14.8198 -4.23989 -13.8127 -14.8198
12295 1 -5.5306 -12.6968 -14.2982 -5.5306 -12.6968 19.7155
5291 1 -3.40915 -13.611 -13.8429 -3.40915 20.4028 -13.8429
11359 1 -1.5837 -13.3579 -14.371 -1.5837 -13.3579 19.6428
10788 1 -2.98661 -13.2624 -15.1584 31.0271 -13.2624 18.8553
1065 1 -1.75976 -14.166 -16.3813 -1.75976 -14.166 -16.3813
1792 1 -0.407026 -13.791 -14.7586 -0.407026 -13.791 -14.7586
7695 1 -16.159 -12.0909 -14.3838 -16.159 21.9228 19.6299
1603 1 -14.6384 -12.2983 -14.5183 -14.6384 -12.2983 -14.5183
305 1 -15.1013 -11.5733 -15.7722 -15.1013 -11.5733 -15.7722
16266 1 -13.4498 -12.9821 -14.8665 20.5639 21.0316 -14.8665
13137 1 -13.8616 -11.6123 -15.7797 20.1521 -11.6123 -15.7797
2868 1 -11.8619 -13.1238 -13.9862 -11.8619 -13.1238 20.0275
8937 1 -11.0434 -12.473 -14.684 22.9703 -12.473 -14.684
312 1 -10.5118 -13.4935 -14.7759 -10.5118 -13.4935 19.2379
4413 1 -10.1512 -11.3141 -14.7053 -10.1512 22.6996 -14.7053
15352 1 -9.31291 -11.9401 -14.585 24.7008 -11.9401 19.4287
10853 1 -8.52375 -12.6845 -14.5856 -8.52375 -12.6845 -14.5856
10664 1 -6.47022 -11.5072 -14.9812 27.5435 -11.5072 19.0325
4665 1 -3.22377 -12.1654 -15.0857 -3.22377 21.8484 -15.0857
9355 1 -1.80095 -11.3546 -15.5771 -1.80095 -11.3546 18.4366
254 1 -0.723383 -12.5475 -15.885 -0.723383 -12.5475 -15.885
639 1 -16.2167 -10.9186 -15.162 -16.2167 -10.9186 -15.162
1883 1 -14.8961 -10.3073 -15.6895 -14.8961 -10.3073 -15.6895
4316 1 -14.02 -10.2154 -14.7681 -14.02 23.7983 -14.7681
13987 1 -12.9148 -9.85176 -15.0671 21.0989 -9.85176 -15.0671
5597 1 -12.62 -12.0929 -14.2536 -12.62 21.9208 -14.2536
8583 1 -11.3798 -10.8699 -14.7542 -11.3798 -10.8699 -14.7542
4980 1 -8.21763 -10.219 -15.8094 -8.21763 -10.219 -15.8094
12208 1 -7.63493 -11.3587 -15.124 26.3788 -11.3587 18.8897
9246 1 -5.92625 -10.5641 -15.6749 28.0875 -10.5641 -15.6749
5116 1 -5.5697 -10.1279 -14.3394 -5.5697 -10.1279 -14.3394
10137 1 -4.74806 -12.0906 -14.8749 -4.74806 -12.0906 -14.8749
2128 1 -3.95212 -10.8515 -15.5761 -3.95212 -10.8515 18.4376
3125 1 -4.0927 -9.89279 -14.8703 -4.0927 -9.89279 19.1434
3816 1 -1.63472 -10.2995 -14.6655 -1.63472 -10.2995 19.3482
516 1 -2.93311 -10.8338 -14.5781 -2.93311 -10.8338 -14.5781
15414 1 -8.01676 -6.6632 -16.5432 25.997 -6.6632 17.4705
4692 1 -16.7434 -9.49198 -14.3189 -16.7434 -9.49198 -14.3189
10243 1 -14.2153 -8.77338 -15.5777 -14.2153 -8.77338 -15.5777
15695 1 -15.1533 -9.42708 -14.5053 18.8604 24.5866 19.5084
13199 1 -14.4178 -8.80187 -14.0369 -14.4178 25.2118 -14.0369
4269 1 -11.8853 -8.80284 -14.2469 -11.8853 -8.80284 -14.2469
376 1 -10.5861 -9.36208 -14.7147 -10.5861 -9.36208 -14.7147
8072 1 -9.26106 -10.0962 -14.8976 -9.26106 23.9175 19.1161
9906 1 -9.8335 -9.151 -13.9102 -9.8335 -9.151 -13.9102
3547 1 -6.92759 -9.51197 -14.9482 -6.92759 -9.51197 19.0655
8711 1 -8.39676 -9.08945 -14.7476 -8.39676 -9.08945 -14.7476
11112 1 -5.72562 -8.62846 -14.7158 -5.72562 -8.62846 19.2979
10790 1 -2.53726 -9.1329 -15.0785 -2.53726 -9.1329 18.9352
11018 1 -4.79744 -9.02035 -14.9949 -4.79744 -9.02035 19.0188
1248 1 -3.06168 -9.4027 -13.8799 -3.06168 -9.4027 -13.8799
10615 1 -0.714612 -9.54967 -15.1759 -0.714612 -9.54967 18.8378
7783 1 -15.6729 -8.40913 -14.9222 -15.6729 25.6046 -14.9222
7447 1 -13.6719 -7.78552 -13.5308 -13.6719 -7.78552 20.483
2832 1 -12.8843 -8.73137 -14.6895 -12.8843 -8.73137 19.3242
12672 1 -10.326 -7.08988 -15.0045 23.6877 -7.08988 -15.0045
2163 1 -9.18521 -8.12178 -14.595 -9.18521 -8.12178 19.4187
320 1 -7.21131 -8.49513 -14.8536 -7.21131 -8.49513 -14.8536
9939 1 -4.80709 -7.84064 -13.8605 -4.80709 -7.84064 -13.8605
8421 1 -3.79854 -7.35879 -15.1558 -3.79854 -7.35879 -15.1558
2121 1 -3.43051 -8.47008 -14.7699 -3.43051 -8.47008 -14.7699
11526 1 -2.01768 -8.18672 -14.7988 -2.01768 -8.18672 19.2149
9990 1 -0.857001 -7.56619 -15.1765 -0.857001 -7.56619 -15.1765
468 1 -16.3723 -5.77918 -14.7962 -16.3723 -5.77918 -14.7962
1043 1 -15.7877 -7.35913 -14.4978 18.226 -7.35913 -14.4978
9267 1 -15.0852 -6.42368 -15.1615 18.9285 -6.42368 -15.1615
6725 1 -12.5005 -6.8789 -14.2405 -12.5005 -6.8789 19.7732
224 1 -13.7086 -7.01034 -14.5973 -13.7086 -7.01034 -14.5973
8388 1 -12.3112 -7.12501 -15.741 -12.3112 -7.12501 -15.741
2478 1 -11.6416 -6.68703 -14.7486 -11.6416 -6.68703 19.2651
15042 1 -10.0783 -5.84123 -15.3907 23.9354 -5.84123 18.623
5221 1 -9.2975 -6.94257 -15.0585 -9.2975 27.0711 18.9553
8721 1 -8.05571 -7.50815 -15.2022 -8.05571 -7.50815 -15.2022
12043 1 -7.73954 -6.68064 -14.2747 -7.73954 -6.68064 19.739
8384 1 -6.39943 -7.85984 -14.1856 -6.39943 -7.85984 -14.1856
1020 1 -6.13476 -6.91375 -14.9801 -6.13476 -6.91375 -14.9801
452 1 -5.02314 -6.77074 -14.6262 -5.02314 -6.77074 -14.6262
9034 1 -2.92798 -6.10062 -15.0899 -2.92798 -6.10062 -15.0899
1677 1 -2.87483 -6.24912 -13.6192 -2.87483 -6.24912 -13.6192
4062 1 -2.06767 -7.00878 -15.3054 -2.06767 -7.00878 -15.3054
2352 1 -1.10628 -6.23209 -15.5137 -1.10628 -6.23209 -15.5137
9080 1 -13.0708 -12.3022 -0.255467 20.9429 -12.3022 -0.255467
5891 1 -15.2924 -5.05248 -14.9345 -15.2924 -5.05248 -14.9345
3124 1 -13.5918 -4.17812 -14.6346 -13.5918 -4.17812 -14.6346
8777 1 -11.4088 -6.07712 -16.0519 -11.4088 -6.07712 17.9618
11087 1 -11.9893 -4.26717 -15.2696 -11.9893 -4.26717 18.7441
10268 1 -11.2283 -4.98085 -14.33 22.7854 -4.98085 -14.33
3885 1 -8.69911 -5.50949 -15.2064 -8.69911 -5.50949 18.8073
11190 1 -9.47841 -4.55689 -14.4023 -9.47841 -4.55689 19.6114
9539 1 -7.7566 -5.28624 -13.9526 -7.7566 -5.28624 -13.9526
14071 1 -6.44512 -4.80533 -14.8215 -6.44512 29.2084 -14.8215
12771 1 -7.13242 -5.69376 -15.2075 -7.13242 28.32 -15.2075
5203 1 -4.38131 -6.05906 -15.0227 -38.395 -6.05906 -15.0227
5089 1 -5.05087 -5.19341 -15.7352 -5.05087 -5.19341 -15.7352
11257 1 -3.39018 -5.17979 -14.6722 -3.39018 -5.17979 19.3415
8984 1 -2.04337 -5.15109 -15.3385 -2.04337 -5.15109 -15.3385
11231 1 -1.32169 -4.36155 -14.6046 -1.32169 -4.36155 19.4091
15544 1 -0.341711 -5.60027 -14.8344 -0.341711 -5.60027 19.1793
15775 1 -16.3137 -4.06285 -14.3538 17.7001 -4.06285 19.66
9620 1 -14.8974 -2.83251 -15.5017 19.1164 -2.83251 -15.5017
10583 1 -13.6514 -3.37856 -15.7967 20.3623 -3.37856 -15.7967
1336 1 -10.9337 -3.68162 -14.565 -10.9337 -3.68162 -14.565
6578 1 -9.62747 -2.62628 -15.3057 -9.62747 -2.62628 18.708
4849 1 -8.65568 -2.94621 -14.6842 -8.65568 31.0675 19.3295
9624 1 -9.10588 -4.2768 -15.5511 24.9078 -4.2768 -15.5511
10506 1 -8.55008 -4.08931 -13.834 25.4636 -4.08931 20.1797
5352 1 -7.50109 -2.83921 -15.1782 -7.50109 -2.83921 -15.1782
8515 1 -7.52231 -4.39886 -14.4013 26.4914 -4.39886 -14.4013
122 1 -6.27207 -2.42444 -14.3424 -6.27207 -2.42444 -14.3424
7782 1 -5.58509 -3.70299 -15.6635 -5.58509 -3.70299 18.3502
838 1 -6.05346 -3.56036 -14.3805 -6.05346 -3.56036 -14.3805
12090 1 -4.46446 -4.0166 -15.2088 29.5492 -4.0166 18.8049
12024 1 -2.50153 -3.80312 -14.8769 -2.50153 -3.80312 19.1368
5596 1 -1.87069 -2.96962 -14.9744 -1.87069 31.0441 -14.9744
12890 1 -0.141504 -11.1399 -9.78762 -0.141504 -11.1399 -9.78762
11169 1 -15.4728 -1.50487 -14.6654 18.5409 -1.50487 19.3483
9079 1 -16.3949 -3.04999 -14.9726 17.6188 -3.04999 -14.9726
3051 1 -13.5187 -2.23628 -15.1401 -13.5187 -2.23628 18.8736
15100 1 -14.4667 -2.27804 -14.3493 19.547 -2.27804 19.6644
13268 1 -12.238 -2.96788 -14.9929 -12.238 -2.96788 -14.9929
2291 1 -11.1581 -2.19068 -14.9068 -11.1581 -2.19068 19.1069
7006 1 -9.72822 -1.62675 -15.3045 -9.72822 -1.62675 18.7092
5974 1 -6.3639 -1.68754 -15.5087 -6.3639 -1.68754 -15.5087
3078 1 -5.04104 -2.71283 -14.8762 -5.04104 -2.71283 -14.8762
8063 1 -2.44843 -1.97401 -14.9831 -2.44843 -1.97401 19.0306
9082 1 -1.04019 -1.94354 -14.6245 -1.04019 -1.94354 -14.6245
12753 1 -14.5563 -0.925936 -15.0446 19.4574 -0.925936 -15.0446
10770 1 -15.3304 -0.329482 -14.3526 18.6833 -0.329482 19.6611
1072 1 -13.4731 -1.16835 -15.8921 -13.4731 -1.16835 -15.8921
12660 1 -14.1312 -1.11434 -13.5753 19.8825 -1.11434 -13.5753
14786 1 -12.7403 -1.15688 -14.2666 21.2734 -1.15688 19.7471
15471 1 -11.1252 -1.00838 -14.5683 22.8885 -1.00838 19.4455
14411 1 -8.20974 -0.745973 -14.727 -8.20974 -0.745973 19.2868
7510 1 -6.42671 -0.875838 -14.6516 -6.42671 -0.875838 19.3621
13096 1 -5.06176 -1.96363 -15.6595 -5.06176 -1.96363 -15.6595
7792 1 -0.323068 -9.16758 -1.97407 -0.323068 24.8461 32.0396
7102 1 -4.129 -1.03897 -14.5259 -4.129 32.9747 19.4878
13563 1 -3.43389 -0.194044 -16.3078 -3.43389 -0.194044 -16.3078
12294 1 -2.08872 -1.30864 -15.9485 -2.08872 -1.30864 18.0653
7908 1 -1.78985 -0.935558 -14.4909 -1.78985 -0.935558 19.5228
4329 1 -0.961785 -0.444529 -15.2615 -0.961785 -0.444529 -15.2615
11409 1 -0.335844 -0.873169 -14.0909 -0.335844 -0.873169 19.9228
13499 1 -11.5379 -0.225558 -9.29388 -11.5379 -0.225558 -9.29388
2939 1 -15.3219 -16.7351 -13.3547 -15.3219 -16.7351 20.659
9552 1 -13.0665 -16.3202 -13.9433 20.9472 -16.3202 -13.9433
12348 1 -9.99236 -16.2424 -12.5209 24.0214 -16.2424 -12.5209
13387 1 -0.372991 -0.424383 -10.8574 -0.372991 -0.424383 -10.8574
855 1 -8.7683 -15.6469 -12.6744 -8.7683 -15.6469 -12.6744
7613 1 -9.3642 -16.359 -13.7148 -9.3642 17.6547 20.2989
5518 1 -7.26244 -16.3545 -12.9996 -7.26244 17.6592 -12.9996
5608 1 -5.9157 -15.3683 -12.7443 -5.9157 18.6454 -12.7443
4662 1 -16.3764 -9.60648 -5.46811 -16.3764 -9.60648 -5.46811
5577 1 -4.16891 -15.9871 -13.0629 -4.16891 18.0266 -13.0629
15460 1 -2.53707 -15.4588 -14.2608 31.4766 18.5549 19.753
1229 1 -1.09374 -16.1888 -14.0241 -1.09374 -16.1888 -14.0241
1514 1 -15.5688 -15.5283 -13.1668 -15.5688 -15.5283 -13.1668
15926 1 -15.4518 -14.6667 -12.2335 18.5619 19.347 21.7803
8192 1 -13.9506 -13.9442 -13.4655 -13.9506 20.0696 20.5483
6076 1 -13.547 -15.197 -12.8234 -13.547 18.8167 -12.8234
6866 1 -12.5535 -15.2583 -13.5549 -12.5535 18.7554 20.4588
4438 1 -10.551 -15.3617 -13.2911 -10.551 18.652 -13.2911
1193 1 -9.86136 -14.4077 -13.9021 -9.86136 -14.4077 -13.9021
10535 1 -7.97041 -14.7517 -13.6846 26.0433 -14.7517 -13.6846
15998 1 -5.70125 -15.8702 -14.139 -5.70125 -15.8702 19.8747
1339 1 -6.67166 -14.2229 -13.1482 -6.67166 -14.2229 -13.1482
12118 1 -4.0306 -14.4258 -12.5204 -4.0306 -14.4258 -12.5204
3417 1 -5.08447 -14.7367 -14.2571 -5.08447 -14.7367 19.7566
804 1 -3.11142 -14.8417 -12.9914 -3.11142 -14.8417 -12.9914
14552 1 -2.66917 -14.3273 -14.4681 -2.66917 19.6864 19.5456
5413 1 -0.18921 -14.3057 -13.1805 -0.18921 19.708 -13.1805
11033 1 -16.5891 -13.2484 -14.0108 17.4246 -13.2484 20.0029
9239 1 -15.6732 -13.2545 -13.3642 18.3405 20.7592 -13.3642
11940 1 -12.3684 -14.056 -13.6978 21.6453 -14.056 20.3159
10207 1 -14.1239 -12.6466 -13.4809 19.8898 -12.6466 -13.4809
9994 1 -11.5901 -13.5387 -12.4803 22.4236 -13.5387 -12.4803
12072 1 -9.05007 -13.634 -14.4037 24.9636 -13.634 19.6101
3070 1 -7.66028 -13.472 -13.6745 -7.66028 -13.472 20.3392
4030 1 -6.06473 -13.8909 -14.2786 -6.06473 -13.8909 19.7351
11234 1 -4.35811 -12.1294 -13.5969 -4.35811 -12.1294 20.4168
12550 1 -4.98489 -13.7604 -13.6317 -4.98489 -13.7604 -13.6317
8889 1 -0.458264 -12.3722 -14.2968 -0.458264 -12.3722 -14.2968
3882 1 -0.703177 -13.5425 -12.2896 -0.703177 -13.5425 -12.2896
256 1 -14.8195 -11.2221 -13.4388 -14.8195 -11.2221 -13.4388
736 1 -13.6047 -11.4647 -14.5442 -13.6047 -11.4647 -14.5442
2238 1 -12.7568 -12.7818 -13.259 -12.7568 -12.7818 20.7547
12886 1 -10.0686 -12.2059 -13.631 -10.0686 21.8078 -13.631
273 1 -11.2952 -12.0997 -13.1113 -11.2952 -12.0997 -13.1113
1663 1 -8.82879 -12.7706 -13.3961 -8.82879 -12.7706 -13.3961
6512 1 -7.00401 -12.4699 -13.7369 -7.00401 21.5439 20.2768
11513 1 -5.48521 -12.2061 -12.2659 -5.48521 -12.2061 21.7478
16370 1 -4.29728 -10.8732 -14.2665 -4.29728 23.1405 19.7473
10121 1 -2.65937 -12.9255 -12.7197 -2.65937 -12.9255 -12.7197
12783 1 -2.98031 -12.2802 -14.0029 -2.98031 21.7336 -14.0029
10844 1 -1.33034 -12.4859 -12.9586 -1.33034 -12.4859 21.0551
1241 1 -0.526933 -11.3334 -14.6133 -34.5406 -11.3334 -14.6133
8294 1 -0.855154 -11.315 -13.3061 -0.855154 -11.315 -13.3061
4923 1 -15.4991 -11.0482 -14.2322 -15.4991 22.9656 -14.2322
1607 1 -16.9299 -10.7626 -13.2141 -16.9299 -10.7626 -13.2141
9831 1 -14.6676 -10.023 -13.6422 19.3461 -10.023 -13.6422
8527 1 -13.6725 -10.3069 -13.0532 20.3412 -10.3069 -13.0532
11950 1 -10.3398 -11.1459 -13.0072 23.674 -11.1459 21.0065
2569 1 -10.907 -9.6972 -13.6466 -10.907 -9.6972 20.3671
1798 1 -9.55421 -10.732 -13.6703 -9.55421 -10.732 -13.6703
3645 1 -8.40925 -10.6891 -14.2325 -8.40925 -10.6891 19.7813
13343 1 -7.16988 -10.6006 -13.7086 -7.16988 23.4131 -13.7086
2490 1 -6.01209 -11.4328 -13.5235 -6.01209 -11.4328 20.4902
839 1 -4.21479 -11.0185 -13.0399 -4.21479 -11.0185 -13.0399
1675 1 -4.92165 -9.89002 -12.7942 -4.92165 -9.89002 -12.7942
1831 1 -3.76042 -9.83739 -13.0729 -3.76042 -9.83739 -13.0729
13639 1 -2.7938 -10.646 -12.3659 -2.7938 23.3677 -12.3659
7166 1 -2.23111 -11.3298 -13.9293 -36.2448 22.6839 20.0844
6230 1 -0.7048 -10.3785 -13.9707 -0.7048 -10.3785 20.043
6853 1 -16.162 -9.88122 -13.097 -16.162 24.1325 20.9167
11955 1 -15.002 -7.37902 -13.7044 -15.002 -7.37902 20.3093
10385 1 -12.9348 -9.07731 -13.4734 21.0789 -9.07731 -13.4734
3748 1 -14.1896 -9.36155 -12.926 -14.1896 -9.36155 21.0877
5086 1 -12.3131 -10.7472 -13.581 -12.3131 23.2665 20.4327
2243 1 -9.88787 -8.40603 -13.2438 -9.88787 -8.40603 20.7699
10702 1 -9.3608 -10.3156 -12.4576 -9.3608 -10.3156 21.5561
12785 1 -7.88742 -9.39007 -13.8564 -7.88742 -9.39007 -13.8564
1321 1 -6.13544 -9.72018 -12.8509 -6.13544 -9.72018 -12.8509
7878 1 -7.062 -8.71347 -12.9347 -7.062 25.3002 21.079
8657 1 -4.63899 -8.87172 -13.7405 -4.63899 -8.87172 -13.7405
10240 1 -1.70965 -10.0037 -13.3706 -1.70965 -10.0037 -13.3706
363 1 -2.46051 -8.75452 -12.878 -2.46051 -8.75452 -12.878
2454 1 -1.83118 -9.21112 -14.1005 -1.83118 -9.21112 -14.1005
13768 1 -0.860941 -9.47157 -12.6662 -0.860941 24.5421 -12.6662
14547 1 -16.534 -8.4021 -13.553 17.4797 -8.4021 20.4608
3649 1 -15.466 -6.43312 -13.3983 -15.466 -6.43312 -13.3983
10399 1 -13.3628 -6.56654 -12.9841 20.651 -6.56654 -12.9841
2381 1 -11.8953 -7.86321 -13.6115 -11.8953 -7.86321 20.4022
12124 1 -10.6519 -7.8539 -13.9 -10.6519 -7.8539 -13.9
6141 1 -9.17604 -7.68729 -13.2886 -9.17604 26.3264 20.7251
10453 1 -9.48555 -6.83981 -13.7322 24.5282 -6.83981 20.2815
14117 1 -7.80478 -7.78691 -13.5864 -7.80478 -7.78691 -13.5864
13515 1 -5.89875 -8.46572 -13.1126 28.115 -8.46572 -13.1126
13514 1 -6.38516 -6.86025 -12.8398 -6.38516 -6.86025 -12.8398
1727 1 -5.03294 -7.99877 -12.5124 -5.03294 -7.99877 -12.5124
4474 1 -3.35688 -8.05407 -13.4101 -3.35688 25.9596 -13.4101
4941 1 -1.82696 -7.20121 -14.1507 -1.82696 26.8125 -14.1507
12283 1 -0.942708 -7.6933 -13.2629 -0.942708 -7.6933 20.7508
8875 1 -13.3212 -0.161342 -9.78757 20.6925 -0.161342 -9.78757
5901 1 -16.6146 -6.15268 -11.8753 -16.6146 -6.15268 -11.8753
1710 1 -14.3317 -6.02375 -13.2909 -14.3317 -6.02375 -13.2909
763 1 -11.3957 -6.7476 -13.4864 -11.3957 -6.7476 -13.4864
352 1 -10.4986 -6.1033 -12.8358 -10.4986 -6.1033 -12.8358
12149 1 -7.60449 -6.26576 -12.9034 -7.60449 -6.26576 21.1103
11751 1 -6.47753 -5.8348 -13.5565 27.5362 -5.8348 20.4572
10354 1 -5.23226 -6.72424 -13.6544 28.7815 -6.72424 -13.6544
350 1 -3.84199 -7.30613 -13.8711 -3.84199 -7.30613 -13.8711
11915 1 -3.27379 -5.54464 -12.7124 -3.27379 -5.54464 21.3013
9790 1 -1.40767 -5.78353 -14.1582 -1.40767 -5.78353 -14.1582
9666 1 -15.367 -5.20286 -13.8973 18.6467 -5.20286 -13.8973
14183 1 -14.5789 -5.19507 -12.7292 19.4348 28.8186 -12.7292
1511 1 -14.2475 -5.6359 -14.5626 -14.2475 -5.6359 -14.5626
2735 1 -13.327 -4.96834 -13.2317 -13.327 -4.96834 -13.2317
4753 1 -12.5681 -5.65047 -14.1603 -12.5681 -5.65047 -14.1603
13232 1 -10.6437 -4.5638 -13.4107 23.37 -4.5638 -13.4107
12483 1 -11.3046 -5.70501 -13.3578 -11.3046 -5.70501 -13.3578
9330 1 -8.73058 -5.8851 -13.9149 25.2831 -5.8851 -13.9149
1741 1 -5.55428 -5.12765 -14.1091 -5.55428 -39.1414 -14.1091
2075 1 -4.69038 -5.62451 -13.6854 -4.69038 -5.62451 20.3283
8390 1 -4.85716 -4.44006 -13.2892 -4.85716 -4.44006 -13.2892
3114 1 -2.94735 -4.33337 -13.5385 -2.94735 -4.33337 -13.5385
8767 1 -0.413279 -5.30816 -13.3819 -0.413279 -5.30816 -13.3819
5076 1 -16.1586 -3.12129 -13.2382 -16.1586 30.8924 -13.2382
80 1 -15.3117 -2.90857 -13.8903 -15.3117 -2.90857 -13.8903
7197 1 -14.3804 -4.16586 -13.8563 -14.3804 -4.16586 20.1575
3574 1 -14.9726 -3.83914 -12.58 -14.9726 -3.83914 21.4337
4904 1 -13.2465 -3.40767 -13.8986 -13.2465 -3.40767 -13.8986
5332 1 -12.2035 -4.20808 -14.1295 -12.2035 -4.20808 19.8842
2727 1 -11.3651 -2.89625 -12.4932 -11.3651 -2.89625 -12.4932
12986 1 -9.96147 -2.3827 -13.909 -9.96147 -2.3827 -13.909
622 1 -10.4876 -3.44732 -13.1358 -10.4876 -3.44732 -13.1358
10130 1 -6.77638 -4.06625 -13.4405 27.2373 -4.06625 -13.4405
15523 1 -6.04459 -2.82061 -12.9025 -6.04459 -2.82061 21.1112
1679 1 -4.10805 -3.89615 -14.065 -4.10805 -3.89615 -14.065
6507 1 -3.53129 -4.17045 -12.4163 -3.53129 29.8433 -12.4163
6601 1 -1.09691 -3.94278 -13.0391 -1.09691 -3.94278 20.9747
12173 1 -16.2907 -1.6076 -12.4626 17.723 -1.6076 21.5511
2366 1 -15.4631 -1.73773 -13.3813 -15.4631 -1.73773 20.6324
8736 1 -13.8022 -2.46403 -13.5867 20.2115 -2.46403 -13.5867
1527 1 -12.5473 -2.27808 -13.7469 -12.5473 -2.27808 -13.7469
11740 1 -11.4681 -2.42532 -13.9039 22.5456 -2.42532 20.1098
3805 1 -8.64826 -1.78546 -14.1404 -8.64826 -1.78546 19.8733
13491 1 -9.20997 -3.03143 -12.8006 24.8037 30.9823 -12.8006
5220 1 -7.40451 -1.71331 -14.0303 -7.40451 -1.71331 -14.0303
9221 1 -7.90086 -3.13436 -13.3998 -7.90086 -3.13436 -13.3998
9206 1 -6.27221 -1.57873 -13.2145 -6.27221 -1.57873 -13.2145
9361 1 -5.1598 -1.1681 -13.9893 -5.1598 -1.1681 -13.9893
8961 1 -4.64236 -2.68862 -13.7996 -4.64236 -2.68862 -13.7996
2841 1 -3.4131 -2.18317 -13.6476 -3.4131 -2.18317 20.3661
4386 1 -1.99099 -3.22155 -13.4047 -1.99099 -3.22155 -13.4047
12405 1 -0.987586 -2.97581 -13.9548 -0.987586 -2.97581 -13.9548
4614 1 -16.6994 -1.33843 -13.4832 -16.6994 -1.33843 -13.4832