ITEM: TIMESTEP
10000
ITEM: NUMBER OF ATOMS
16384
ITEM: BOX BOUNDS pp pp pp
-1.7006855707231768e+01 1.7006855707231768e+01
-1.7006855707231768e+01 1.7006855707231768e+01
-1.7006855707231768e+01 1.7006855707231768e+01
ITEM: ATOMS id type x y z xu yu zu
3899 1 -3.42995 -16.1732 -16.7817 -3.42995 -16.1732 17.232
1327 1 -13.2544 -16.5415 -16.6539 -13.2544 -16.5415 -16.6539
4484 1 -10.1651 -15.7352 -16.117 -10.1651 18.2785 -16.117
4614 1 -16.8584 -2.32302 -13.7901 -16.8584 -2.32302 -13.7901
13215 1 -16.9098 -6.95727 -8.99924 17.1039 -6.95727 -8.99924
13619 1 -14.5823 -16.3398 -3.04019 19.4314 -16.3398 -3.04019
1690 1 -7.38331 -15.2231 -16.4269 -7.38331 18.7906 -16.4269
1240 1 -10.9334 -0.678975 -8.61938 -10.9334 -0.678975 -8.61938
13961 1 -3.55184 -14.6408 -16.0549 -3.55184 19.373 -16.0549
15536 1 -2.81325 -15.3346 -16.5368 -2.81325 18.6791 -16.5368
5059 1 -0.65478 -11.7382 -1.32424 -0.65478 -11.7382 -1.32424
10628 1 -2.02494 -14.4317 -15.3677 -2.02494 -14.4317 18.646
5809 1 -2.74789 -16.4307 -15.888 -2.74789 17.583 -15.888
5000 1 -16.7893 -15.9092 -16.5259 17.2244 18.1045 17.4878
5037 1 -15.0259 -15.0498 -16.5009 -15.0259 18.964 17.5128
2101 1 -14.8877 -15.0534 -15.3353 -14.8877 -15.0534 18.6784
10379 1 -13.4973 -15.0434 -16.5674 20.5164 -15.0434 17.4463
12676 1 -12.3816 -15.5794 -16.4746 21.6321 18.4343 -16.4746
7734 1 -10.5373 -14.1184 -16.52 -10.5373 19.8953 17.4938
2599 1 -9.52051 -14.7422 -16.857 -9.52051 -14.7422 17.1567
4246 1 -9.13639 -16.0143 -16.2986 -9.13639 17.9994 -16.2986
4415 1 -0.238562 -1.41322 -0.209058 -0.238562 -1.41322 -0.209058
14313 1 -2.23778 -16.9089 -1.50944 -2.23778 17.1048 -1.50944
4340 1 -8.1707 -16.795 -6.33797 -8.1707 17.2187 -6.33797
12056 1 -6.2423 -14.9943 -16.5091 -6.2423 19.0194 17.5046
1519 1 -3.10793 -13.9861 -16.915 -3.10793 -13.9861 -16.915
1065 1 -2.00759 -13.9442 -16.4212 -2.00759 -13.9442 -16.4212
15558 1 -0.798591 -14.3987 -15.9131 -0.798591 19.615 18.1006
15174 1 -16.41 -14.5222 -16.8733 17.6037 -14.5222 17.1404
4910 1 -15.0226 -12.852 -16.3982 -15.0226 -12.852 -16.3982
14247 1 -14.1219 -13.7763 -15.6508 -14.1219 20.2374 -15.6508
8774 1 -11.8369 -14.3991 -16.0446 -11.8369 -14.3991 -16.0446
13995 1 -9.19265 -14.0358 -15.5475 -9.19265 19.9779 -15.5475
3906 1 -9.71144 -13.0997 -14.6919 -9.71144 -13.0997 19.3218
4718 1 -8.26115 -12.9387 -16.1765 -8.26115 -12.9387 -16.1765
1970 1 -6.74422 -13.8686 -16.5128 -6.74422 -13.8686 -16.5128
8500 1 -6.42566 -13.0805 -15.7458 -6.42566 -13.0805 -15.7458
390 1 -4.86458 -14.1837 -16.335 -4.86458 -14.1837 17.6787
7826 1 -4.11952 -13.7181 -15.3948 -4.11952 20.2956 18.6189
1363 1 -14.8283 -10.5549 -15.9385 -14.8283 -10.5549 -15.9385
11886 1 -15.8536 -11.9974 -16.7202 18.1601 -11.9974 17.2935
15178 1 -13.745 -12.5498 -16.409 20.2687 21.4639 17.6047
9359 1 -12.043 -11.969 -16.8467 21.9707 -11.969 -16.8467
3531 1 -10.8409 -11.2336 -16.0673 -10.8409 -11.2336 17.9464
5482 1 -11.5027 -12.7828 -16.0109 -11.5027 21.2309 -16.0109
15352 1 -10.5139 -13.1209 -16.2344 23.4998 -13.1209 17.7793
12680 1 -8.0307 -11.0989 -15.1798 -8.0307 22.9148 -15.1798
6265 1 -8.27933 -11.5766 -16.3052 -8.27933 22.4371 17.7085
11401 1 -6.96928 -11.9695 -16.4101 -6.96928 -11.9695 17.6036
3934 1 -5.12449 -12.5237 -15.9571 -5.12449 -12.5237 18.0566
9347 1 -4.6326 -11.2615 -16.5005 29.3811 -11.2615 -16.5005
618 1 -3.01516 -10.7265 -14.3677 -3.01516 -10.7265 -14.3677
5707 1 -3.00724 -11.1114 -15.7775 -3.00724 22.9023 -15.7775
254 1 -2.01428 -12.8104 -16.9807 -2.01428 -12.8104 -16.9807
11854 1 -15.4597 -10.3383 -16.8383 18.5541 -10.3383 17.1754
1883 1 -14.5018 -9.12548 -16.03 -14.5018 -9.12548 -16.03
11319 1 -12.559 -10.9497 -16.9981 21.4547 -10.9497 17.0156
4814 1 -10.0083 -10.5271 -16.0786 -10.0083 23.4866 -16.0786
2449 1 -8.5863 -10.6194 -16.5746 -8.5863 -10.6194 17.4391
13612 1 -7.13125 -10.5211 -16.4809 26.8825 -10.5211 -16.4809
13116 1 -4.62612 -16.4134 -2.67994 -4.62612 17.6004 -2.67994
13994 1 -4.22335 -0.165965 -16.8501 -4.22335 -0.165965 -16.8501
2153 1 -5.76229 -13.5863 -17.0125 -5.76229 -13.5863 17.0012
9355 1 -1.11691 -11.3599 -15.8782 -1.11691 -11.3599 18.1355
14639 1 -0.0621238 -16.5697 -0.232014 -0.0621238 17.444 -0.232014
2918 1 -11.3808 -16.4896 -14.2641 -11.3808 -16.4896 19.7496
416 1 -9.85516 -16.0889 -6.1523 -9.85516 -16.0889 -6.1523
13845 1 -0.132961 -1.7477 -16.9739 -0.132961 -1.7477 -16.9739
4209 1 -7.61351 -16.9937 -11.8496 -7.61351 17.02 -11.8496
1281 1 -11.1231 -9.28499 -15.4175 -11.1231 -9.28499 -15.4175
7432 1 -10.1918 -9.42278 -16.3427 -10.1918 24.5909 17.671
8711 1 -8.25702 -9.47454 -16.3486 -8.25702 -9.47454 -16.3486
15587 1 -6.88009 -9.20544 -16.0057 27.1336 -9.20544 18.008
948 1 -6.51336 -8.27124 -14.7145 -6.51336 -8.27124 -14.7145
5729 1 -14.9391 -16.8136 -1.82412 -14.9391 17.2001 -1.82412
11018 1 -5.37265 -8.1679 -15.5907 -5.37265 -8.1679 18.423
1666 1 -3.95081 -9.47651 -16.2615 -3.95081 -9.47651 -16.2615
8548 1 -1.9374 -10.2485 -16.6385 -1.9374 -10.2485 -16.6385
16171 1 -14.118 -16.905 -4.09883 19.8957 17.1087 -4.09883
11923 1 -1.32915 -9.2325 -15.9479 -1.32915 -9.2325 -15.9479
2256 1 -15.7452 -7.86334 -15.2752 -15.7452 -7.86334 18.7385
15778 1 -17.0347 -9.66831 -16.6619 16.979 24.3454 17.3518
1705 1 -6.87828 -16.6618 -6.75883 -6.87828 -16.6618 -6.75883
10243 1 -13.9637 -8.27976 -15.4751 -13.9637 -8.27976 -15.4751
7013 1 -14.5656 -7.93716 -16.7645 -14.5656 26.0766 17.2492
14777 1 -12.8761 -8.24839 -16.0455 21.1376 -8.24839 17.9682
6218 1 -9.94815 -8.16455 -15.5508 -9.94815 25.8492 18.463
6811 1 -0.349978 -2.82392 -0.675989 -0.349978 -2.82392 -0.675989
7263 1 -8.1432 -7.07581 -16.0144 -8.1432 26.9379 17.9993
1853 1 -0.589525 -10.6752 -17.0241 -0.589525 -10.6752 -17.0241
5446 1 -6.13947 -6.88805 -16.0831 -40.1532 -6.88805 -16.0831
4080 1 -10.0898 -0.173615 -3.55325 -10.0898 -0.173615 -3.55325
16127 1 -4.98006 -7.40665 -16.202 -4.98006 -7.40665 17.8117
15421 1 -0.386319 -9.01401 -16.4322 -0.386319 24.9997 -16.4322
9990 1 -1.99002 -7.50822 -15.7032 -1.99002 -7.50822 -15.7032
10411 1 -9.70427 -16.6455 -0.869433 24.3094 -16.6455 -0.869433
7730 1 -14.6251 -16.7496 -10.5593 -14.6251 17.2641 -10.5593
11013 1 -13.8092 -6.18259 -16.7544 20.2045 -6.18259 17.2593
12128 1 -15.304 -5.39313 -16.4723 -15.304 -5.39313 -16.4723
5727 1 -11.819 -7.39421 -16.2207 -11.819 -7.39421 -16.2207
12672 1 -9.469 -7.09627 -15.8188 24.5447 -7.09627 -15.8188
4175 1 -1.81588 -16.8514 -5.35862 -1.81588 17.1623 -5.35862
5221 1 -7.50183 -5.21958 -14.687 -7.50183 28.7941 19.3267
16116 1 -6.98808 -6.5458 -15.4677 27.0256 27.4679 18.546
4104 1 -10.6162 -16.6769 -7.29139 -10.6162 17.3368 -7.29139
5034 1 -7.42198 -16.5238 -5.42726 -7.42198 17.4899 -5.42726
3698 1 -10.2491 -0.70702 -0.211981 -10.2491 -0.70702 -0.211981
8421 1 -2.99087 -7.52073 -16.8798 -2.99087 -7.52073 -16.8798
4696 1 -16.7531 -3.71321 -6.28498 -16.7531 30.3005 -6.28498
2352 1 -0.251661 -6.23674 -15.4317 -0.251661 -6.23674 -15.4317
1707 1 -1.27008 -5.95903 -15.7645 -1.27008 -5.95903 -15.7645
1732 1 -0.297554 -11.2389 -13.263 -0.297554 -11.2389 -13.263
5891 1 -15.5989 -4.17522 -15.8349 -15.5989 -4.17522 -15.8349
4640 1 -4.38038 -15.8646 -10.6864 -4.38038 18.1491 -10.6864
13964 1 -12.624 -5.72927 -16.6954 -12.624 -5.72927 -16.6954
10912 1 -13.981 -3.36583 -16.7659 20.0327 -3.36583 17.2478
11087 1 -11.1627 -4.84743 -16.5705 -11.1627 -4.84743 17.4432
6792 1 -4.11864 -0.421262 -8.17109 -38.1324 -0.421262 -8.17109
14187 1 -9.26612 -4.97657 -15.8836 24.7476 -4.97657 -15.8836
12459 1 -8.06577 -3.81783 -16.0628 -8.06577 30.1959 -16.0628
15414 1 -6.82735 -4.49475 -15.7198 27.1864 -4.49475 18.2939
762 1 -6.00544 -5.50362 -16.3314 -6.00544 -5.50362 -16.3314
12090 1 -4.53428 -5.5178 -15.6116 29.4794 -5.5178 18.4022
9145 1 -3.01201 -4.00499 -16.1434 -3.01201 -4.00499 -16.1434
161 1 -0.501102 -1.68807 -13.6705 -0.501102 -1.68807 -13.6705
12661 1 -5.87395 -1.85222 -1.43481 -5.87395 -1.85222 -1.43481
1783 1 -15.779 -0.0346299 -1.07352 -15.779 -0.0346299 -1.07352
8984 1 -1.77208 -4.55953 -16.0515 -1.77208 -4.55953 -16.0515
6519 1 -0.738137 -4.92749 -16.6723 -0.738137 -4.92749 17.3414
13897 1 -16.6754 -8.04779 -0.174433 17.3383 -8.04779 -0.174433
9669 1 -16.3019 -3.55901 -16.766 17.7118 -3.55901 -16.766
2288 1 -14.0156 -4.62847 -16.8824 -14.0156 -4.62847 17.1313
1792 1 -0.627961 -12.7401 -14.6679 -0.627961 -12.7401 -14.6679
7698 1 -12.852 -3.01898 -15.6993 -12.852 -3.01898 18.3144
10636 1 -10.9094 -3.1629 -16.0032 23.1043 -3.1629 18.0105
1279 1 -9.33119 -3.63358 -16.3899 -9.33119 -3.63358 -16.3899
1487 1 -9.26542 -3.56643 -14.6418 -9.26542 -3.56643 -14.6418
5081 1 -6.82533 -3.00465 -15.1771 -6.82533 -3.00465 -15.1771
5262 1 -9.50595 -16.5901 -7.57852 -9.50595 17.4236 -7.57852
9314 1 -2.00926 -3.82923 -15.1575 -2.00926 -3.82923 -15.1575
9411 1 -11.2556 -1.14034 -10.0086 22.7581 -1.14034 -10.0086
292 1 -5.86524 -16.7894 -14.8723 -5.86524 -16.7894 -14.8723
9125 1 -0.305591 -1.28264 -7.48132 33.7081 -1.28264 -7.48132
9620 1 -16.6045 -1.66662 -15.8206 17.4092 -1.66662 -15.8206
10814 1 -14.4048 -3.47469 -15.559 19.609 -3.47469 -15.559
2826 1 -13.9482 -1.67406 -16.2059 -13.9482 -1.67406 17.8078
5524 1 -11.7451 -2.50961 -16.6403 -11.7451 -2.50961 -16.6403
2906 1 -10.1655 -3.0679 -16.9742 -10.1655 -3.0679 17.0395
64 1 -7.71241 -1.88158 -15.6775 -7.71241 -1.88158 -15.6775
6578 1 -9.39595 -1.95746 -16.6224 -9.39595 -1.95746 17.3913
14550 1 -8.82517 -2.69683 -15.7801 -8.82517 -2.69683 18.2336
1025 1 -0.310383 -1.0571 -5.85756 -0.310383 -1.0571 -5.85756
5974 1 -4.68894 -3.21482 -16.8895 -4.68894 -3.21482 -16.8895
13096 1 -4.67263 -4.72791 -16.6481 -4.67263 -4.72791 -16.6481
2560 1 -3.57259 -2.52052 -15.8964 -3.57259 -2.52052 18.1173
3463 1 -3.20772 -0.80719 -16.5994 -3.20772 -0.80719 17.4144
1047 1 -2.416 -2.40075 -16.0053 -2.416 -2.40075 -16.0053
1606 1 -1.13136 -2.2421 -15.9739 -1.13136 -2.2421 -15.9739
2980 1 -1.27279 -0.0151509 -15.5633 -1.27279 -0.0151509 -15.5633
6037 1 -4.47664 -16.5041 -6.92304 -4.47664 17.5096 -6.92304
7765 1 -16.9539 -16.0039 -4.36662 -16.9539 18.0098 -4.36662
15607 1 -14.2043 -1.3787 -15.092 19.8094 -1.3787 18.9217
2701 1 -15.5157 -0.994185 -16.4046 -15.5157 -0.994185 17.6091
12753 1 -12.995 -1.0825 -16.5626 21.0187 -1.0825 -16.5626
4762 1 -11.7077 -1.05241 -16.4304 -11.7077 -1.05241 -16.4304
8366 1 -16.3996 -9.91666 -12.7269 17.6141 -9.91666 -12.7269
892 1 -10.6395 -1.53311 -16.7802 -10.6395 -1.53311 -16.7802
3495 1 -10.0072 -0.770978 -15.5746 -10.0072 -0.770978 18.4391
5239 1 -8.80895 -0.600684 -16.3378 -8.80895 -0.600684 -16.3378
684 1 -7.73328 -0.732321 -15.9562 -7.73328 -0.732321 -15.9562
10086 1 -6.20802 -0.450773 -16.6388 -6.20802 -0.450773 -16.6388
3879 1 -5.18933 -0.328558 -16.3644 -5.18933 -34.3423 17.6493
5529 1 -0.0916103 -15.0418 -5.01322 -0.0916103 18.9719 -5.01322
12460 1 -16.5569 -8.45591 -13.198 17.4569 -8.45591 -13.198
12294 1 -2.14968 -1.02016 -16.5902 -2.14968 -1.02016 17.4235
953 1 -0.855859 -0.932816 -16.2218 -0.855859 -0.932816 -16.2218
1657 1 -7.7566 -8.02315 -16.6754 -7.7566 -8.02315 -16.6754
7540 1 -15.8825 -16.9445 -14.5481 -15.8825 17.0692 19.4657
10387 1 -12.6279 -16.9435 -15.8228 21.3858 -16.9435 18.1909
661 1 -13.4035 -16.2571 -15.1822 -13.4035 -16.2571 -15.1822
4829 1 -9.23239 -16.2404 -14.5087 -9.23239 17.7733 -14.5087
5786 1 -11.2992 -15.4864 -15.818 -11.2992 18.5273 -15.818
7751 1 -8.89631 -16.963 -15.2146 -8.89631 17.0507 18.7991
13461 1 -0.372931 -13.5873 -0.308077 -0.372931 20.4264 -0.308077
7950 1 0.0477474 -15.4459 -7.3994 0.0477474 18.5678 26.6143
5235 1 -7.62776 -15.6697 -14.9468 -7.62776 -15.6697 -14.9468
9278 1 -5.98778 -15.5877 -15.349 -5.98778 -15.5877 -15.349
4519 1 -4.93234 -15.5501 -15.5952 -4.93234 18.4636 -15.5952
15460 1 -4.92454 -16.5795 -13.9639 29.0892 17.4342 20.0498
8641 1 -3.69522 -15.5305 -15.382 -3.69522 18.4832 -15.382
4616 1 -0.943959 -15.6679 -15.5989 -0.943959 18.3458 -15.5989
12326 1 -17.0669 -15.3827 -15.2981 16.9468 -15.3827 18.7156
12844 1 -16.4866 -14.9426 -14.0083 17.5271 19.0711 -14.0083
9729 1 -7.95174 -16.7039 -3.12121 26.062 -16.7039 -3.12121
2114 1 -16.0124 -14.4 -14.9252 -16.0124 -14.4 19.0885
13193 1 -12.8818 -14.5883 -15.2035 21.1319 19.4254 -15.2035
8786 1 -13.7884 -14.8774 -14.403 20.2253 -14.8774 -14.403
921 1 -12.624 -16.1607 -13.9126 -12.624 -16.1607 -13.9126
14619 1 -11.8076 -15.1443 -14.6472 22.2061 18.8694 -14.6472
3418 1 -9.91312 -15.0203 -14.0788 -9.91312 -15.0203 19.9349
12072 1 -10.2522 -14.7463 -15.4714 23.7615 -14.7463 18.5423
15814 1 -6.89505 -14.7765 -14.9131 -6.89505 19.2372 19.1006
1661 1 -5.39129 -14.306 -15.1638 -5.39129 -14.306 -15.1638
10478 1 -4.13697 -14.8252 -14.4375 -4.13697 -14.8252 19.5762
15480 1 -1.34083 -12.9836 -15.6804 -1.34083 21.0301 18.3333
14552 1 -3.55999 -14.6397 -13.3841 -3.55999 19.374 20.6296
10502 1 -0.721107 -14.6025 -14.4599 33.2926 -14.6025 19.5538
10472 1 -7.19022 -7.03357 -16.6376 26.8235 -7.03357 17.3761
6463 1 -13.5583 -13.9965 -13.7057 -13.5583 20.0172 20.308
312 1 -10.8138 -13.4198 -14.5714 -10.8138 -13.4198 19.4423
9102 1 -8.13834 -14.5889 -15.6234 -8.13834 -14.5889 -15.6234
3745 1 -8.32375 -13.6244 -14.131 -8.32375 -13.6244 19.8827
1048 1 -7.63209 -13.4005 -15.176 -7.63209 -13.4005 -15.176
4030 1 -5.37638 -15.2038 -14.1432 -5.37638 -15.2038 19.8705
7864 1 -5.57924 -13.008 -14.3448 -5.57924 21.0058 19.669
910 1 -3.64593 -13.6131 -14.168 -3.64593 -13.6131 -14.168
6397 1 -2.85276 -13.5876 -15.2051 -2.85276 20.4261 18.8086
11359 1 -2.79313 -14.8318 -14.1613 -2.79313 -14.8318 19.8524
7800 1 -15.877 -12.8022 -15.4657 -15.877 21.2115 18.548
1603 1 -14.7661 -11.8376 -15.5101 -14.7661 -11.8376 -15.5101
13137 1 -12.6001 -12.7898 -15.9924 21.4136 -12.7898 -15.9924
5597 1 -13.7948 -12.9878 -14.5527 -13.7948 21.0259 -14.5527
14050 1 -11.5367 -11.3837 -15.3494 22.477 22.63 18.6643
8937 1 -10.7666 -10.4745 -15.2284 23.2471 -10.4745 -15.2284
10853 1 -9.15257 -13.4607 -13.0246 -9.15257 -13.4607 -13.0246
12208 1 -9.29076 -12.0901 -15.9667 24.723 -12.0901 18.0471
10048 1 -7.42377 -12.1071 -15.4142 -7.42377 -12.1071 -15.4142
12295 1 -5.79224 -11.9542 -15.012 -5.79224 -11.9542 19.0017
10137 1 -4.33665 -12.3485 -15.2691 -4.33665 -12.3485 -15.2691
4665 1 -2.88119 -11.5183 -13.4949 -2.88119 22.4954 -13.4949
10788 1 -2.91877 -12.3463 -15.047 31.0949 -12.3463 18.9667
1241 1 -1.86851 -11.7039 -15.0321 -35.8822 -11.7039 -15.0321
639 1 -16.0553 -11.5018 -15.2006 -16.0553 -11.5018 -15.2006
305 1 -13.1983 -10.688 -15.7664 -13.1983 -10.688 -15.7664
4923 1 -15.1913 -10.2446 -14.6801 -15.1913 23.7691 -14.6801
736 1 -12.8866 -11.9789 -14.9244 -12.8866 -11.9789 -14.9244
1145 1 -11.8485 -10.4578 -16.0169 -11.8485 -10.4578 -16.0169
4413 1 -9.63051 -10.9588 -15.1229 -9.63051 23.0549 -15.1229
8072 1 -7.90776 -9.64727 -14.9355 -7.90776 24.3664 19.0782
4980 1 -6.64213 -10.1915 -14.5985 -6.64213 -10.1915 -14.5985
10664 1 -6.29953 -10.9893 -15.6066 27.7142 -10.9893 18.4071
2128 1 -4.55146 -11.1426 -15.299 -4.55146 -11.1426 18.7147
11063 1 -2.50959 -9.37543 -15.5644 -2.50959 -9.37543 18.4494
3816 1 -1.77475 -10.167 -15.4581 -1.77475 -10.167 18.5556
4276 1 -16.6521 -10.4415 -14.7861 -16.6521 23.5722 -14.7861
15695 1 -14.2557 -10.0486 -13.8521 19.758 23.9651 20.1616
4316 1 -13.9962 -10.0339 -15.0379 -13.9962 23.9799 -15.0379
13987 1 -12.6576 -9.66012 -13.7677 21.3561 -9.66012 -13.7677
2832 1 -13.8424 -7.50994 -14.3614 -13.8424 -7.50994 19.6524
704 1 -12.6384 -9.72402 -15.6293 -12.6384 -9.72402 -15.6293
376 1 -9.39252 -9.16001 -15.5956 -9.39252 -9.16001 -15.5956
6129 1 -6.04623 -9.04735 -15.4078 -6.04623 -9.04735 18.6059
320 1 -6.61061 -9.45602 -13.3318 -6.61061 -9.45602 -13.3318
3125 1 -4.9626 -10.2032 -15.9537 -4.9626 -10.2032 18.06
1248 1 -2.5082 -10.0941 -13.6088 -2.5082 -10.0941 -13.6088
10615 1 -2.00839 -8.4161 -14.8909 -2.00839 -8.4161 19.1228
7783 1 -15.8154 -8.22732 -16.4422 -15.8154 25.7864 -16.4422
14547 1 -16.2718 -9.83404 -15.9091 17.7419 -9.83404 18.1046
13199 1 -15.2269 -8.96335 -14.8321 -15.2269 25.0504 -14.8321
1043 1 -14.7034 -7.53943 -15.1473 19.3103 -7.53943 -15.1473
224 1 -13.3422 -6.70937 -15.738 -13.3422 -6.70937 -15.738
8388 1 -11.8431 -8.93879 -14.01 -11.8431 -8.93879 -14.01
702 1 -12.2337 -8.69832 -15.0335 -12.2337 -8.69832 -15.0335
12124 1 -11.2485 -8.07085 -14.7712 -11.2485 -8.07085 -14.7712
8965 1 -8.42665 -7.59198 -15.0082 25.5871 -7.59198 -15.0082
8721 1 -7.8007 -8.44322 -14.3139 -7.8007 -8.44322 -14.3139
10134 1 -5.21465 -7.59461 -14.0308 -5.21465 -7.59461 -14.0308
1020 1 -5.9823 -7.42791 -13.0315 -5.9823 -7.42791 -13.0315
11112 1 -5.01361 -8.96525 -14.5197 -5.01361 -8.96525 19.494
2121 1 -4.06625 -7.29245 -14.9805 -4.06625 -7.29245 -14.9805
11526 1 -3.22048 -7.89238 -14.2488 -3.22048 -7.89238 19.7649
4062 1 -3.62343 -8.07049 -15.7828 -3.62343 -8.07049 -15.7828
9583 1 -0.80279 -8.19031 -15.5491 -0.80279 -8.19031 -15.5491
1122 1 -7.98791 -3.22632 -0.314458 -7.98791 -3.22632 -0.314458
9267 1 -16.2865 -6.18367 -15.8818 17.7272 -6.18367 -15.8818
11614 1 -11.9409 -7.41123 -14.1811 22.0728 -7.41123 19.8326
2478 1 -10.3393 -7.00592 -16.5848 -10.3393 -7.00592 17.4289
4753 1 -11.0614 -6.41024 -15.2112 -11.0614 -6.41024 -15.2112
10453 1 -10.3457 -5.38972 -15.7776 23.668 -5.38972 18.2361
9330 1 -8.65187 -6.01808 -15.7077 25.3618 -6.01808 -15.7077
14469 1 -7.06398 -7.87889 -15.7674 26.9497 26.1348 -15.7674
11415 1 -4.99866 -6.56272 -15.4764 29.0151 -6.56272 18.5373
452 1 -4.37651 -8.30661 -13.5366 -4.37651 -8.30661 -13.5366
350 1 -3.5393 -6.58415 -13.6035 -3.5393 -6.58415 -13.6035
9034 1 -2.32183 -6.46481 -15.6081 -2.32183 -6.46481 -15.6081
3124 1 -13.1716 -4.73936 -14.3961 -13.1716 -4.73936 -14.3961
1511 1 -13.4363 -4.91625 -15.7564 -13.4363 -4.91625 -15.7564
865 1 -12.014 -5.47279 -15.5327 -12.014 -5.47279 -15.5327
10268 1 -12.1435 -5.20139 -14.3095 21.8702 -5.20139 -14.3095
15042 1 -11.0754 -4.45969 -14.9781 22.9383 -4.45969 19.0356
3885 1 -9.42958 -5.29074 -14.5681 -9.42958 -5.29074 19.4456
12771 1 -6.76866 -6.15177 -13.9469 -6.76866 27.8619 -13.9469
8515 1 -8.37674 -4.2783 -14.6708 25.637 -4.2783 -14.6708
14071 1 -6.70044 -4.28377 -14.6293 -6.70044 29.7299 -14.6293
1741 1 -6.15805 -5.74694 -14.8113 -6.15805 -39.7606 -14.8113
11257 1 -3.23245 -4.85623 -14.9533 -3.23245 -4.85623 19.0604
2075 1 -3.28112 -6.16119 -15.2243 -3.28112 -6.16119 18.7894
11231 1 -1.55175 -4.25163 -13.7232 -1.55175 -4.25163 20.2905
12024 1 -2.82532 -5.53722 -16.5474 -2.82532 -5.53722 17.4663
15544 1 -0.373859 -5.03759 -15.0466 -0.373859 -5.03759 18.9671
1570 1 -16.0117 -3.37629 -14.8682 18.002 -3.37629 -14.8682
10583 1 -15.3554 -2.23717 -15.2204 18.6583 -2.23717 -15.2204
80 1 -15.033 -4.12344 -14.925 -15.033 -4.12344 -14.925
13268 1 -11.9706 -2.64434 -14.884 -11.9706 -2.64434 -14.884
5332 1 -12.0703 -4.18754 -15.6612 -12.0703 -4.18754 18.3525
84 1 -11.5849 -3.23965 -14.1231 -11.5849 -3.23965 -14.1231
9624 1 -10.4767 -3.53341 -14.7715 23.537 -3.53341 -14.7715
7782 1 -5.86831 -3.85173 -16.3731 -5.86831 -3.85173 17.6406
838 1 -5.98841 -2.65246 -14.4015 -5.98841 -2.65246 -14.4015
3078 1 -5.0148 -3.01875 -15.6748 -5.0148 -3.01875 -15.6748
1679 1 -5.848 -3.74713 -14.8399 -5.848 -3.74713 -14.8399
2026 1 -3.61754 -3.43693 -15.2191 -3.61754 -37.4506 -15.2191
5596 1 -0.573936 -3.02455 -15.0231 -0.573936 30.9892 -15.0231
6505 1 -0.82682 -3.5713 -15.9625 -0.82682 -3.5713 -15.9625
11169 1 -16.2238 -1.84584 -14.7834 17.7899 -1.84584 19.2303
9079 1 -14.9546 -2.9184 -13.9896 19.0592 -2.9184 -13.9896
15100 1 -15.3685 -1.08786 -13.8606 18.6452 -1.08786 20.1531
3051 1 -12.8905 -3.67931 -14.2357 -12.8905 -3.67931 19.778
1072 1 -12.8995 -1.65392 -15.417 -12.8995 -1.65392 -15.417
2291 1 -10.2078 -2.13203 -15.3768 -10.2078 -2.13203 18.6369
4849 1 -9.38396 -2.15973 -13.8637 -9.38396 31.854 20.15
7006 1 -8.49482 -1.41157 -14.7102 -8.49482 -1.41157 19.3035
16358 1 -8.23063 -2.64407 -14.752 25.7831 -2.64407 19.2617
5352 1 -5.9414 -2.34573 -15.9057 -5.9414 -2.34573 -15.9057
5220 1 -5.91965 -1.299 -14.7318 -5.91965 -1.299 -14.7318
122 1 -4.92859 -1.6074 -16.008 -4.92859 -1.6074 -16.008
7102 1 -3.92229 -2.37168 -13.862 -3.92229 31.642 20.1517
3835 1 -3.42077 -2.11656 -14.8646 -3.42077 -2.11656 19.1491
8063 1 -2.33266 -1.90705 -14.461 -2.33266 -1.90705 19.5527
1848 1 -8.92719 -6.1257 -16.8846 -8.92719 -6.1257 -16.8846
7755 1 -9.00446 -16.6903 -9.25096 -9.00446 17.3234 24.7628
5101 1 -12.7296 -4.41245 -16.6363 -12.7296 -4.41245 -16.6363
14786 1 -12.2004 -0.581685 -15.0528 21.8134 -0.581685 18.9609
2191 1 -9.90093 -1.01332 -13.8417 -9.90093 -1.01332 20.172
15471 1 -11.7932 -1.63145 -14.6604 22.2206 -1.63145 19.3533
14727 1 -10.9155 -0.197073 -15.3326 -10.9155 -0.197073 -15.3326
14411 1 -7.15542 -0.266305 -14.7746 -7.15542 -0.266305 19.2391
7510 1 -5.65421 -0.245082 -15.3702 -5.65421 -0.245082 18.6435
7908 1 -2.40444 -0.867826 -15.2338 -2.40444 -0.867826 18.7799
11409 1 -0.593833 -0.20688 -14.3571 -0.593833 -0.20688 19.6567
7143 1 -1.04885 -0.74673 -2.10784 -1.04885 -0.74673 -2.10784
4794 1 -15.4028 -15.5891 -13.3429 -15.4028 18.4246 -13.3429
4087 1 -16.2425 -14.7532 -12.6769 -16.2425 19.2605 -12.6769
2939 1 -13.4804 -15.5471 -13.5647 -13.4804 -15.5471 20.4491
3730 1 -0.151342 -7.42186 -15.7603 -0.151342 -7.42186 -15.7603
1739 1 -10.945 -15.6389 -12.9361 -10.945 -15.6389 -12.9361
7091 1 -0.677086 -1.90382 -1.26643 -0.677086 32.1099 -1.26643
7613 1 -8.5578 -16.8286 -13.195 -8.5578 17.1851 20.8187
5518 1 -8.11706 -16.9525 -14.5136 -8.11706 17.0612 -14.5136
7522 1 -16.377 -13.2493 -3.73579 -16.377 -13.2493 -3.73579
16084 1 -3.20351 -15.9963 -14.5552 -3.20351 18.0174 19.4585
14450 1 -16.6609 -9.22313 -3.14308 17.3528 -9.22313 -3.14308
5397 1 -0.7832 -15.0097 -13.5342 -0.7832 19.004 -13.5342
8445 1 -0.448798 -16.5115 -12.5008 -0.448798 -16.5115 -12.5008
245 1 -11.1838 -8.30857 -16.1864 -11.1838 -8.30857 -16.1864
8535 1 -14.3721 -15.8964 -14.2529 -14.3721 -15.8964 -14.2529
1514 1 -14.3343 -14.8324 -12.9666 -14.3343 -14.8324 -12.9666
6866 1 -13.5388 -14.737 -12.0521 -13.5388 19.2767 21.9616
11940 1 -12.0723 -14.7116 -13.5069 21.9414 -14.7116 20.5068
901 1 -12.1906 -15.5962 -12.362 -12.1906 -15.5962 -12.362
10862 1 -10.9915 -14.4858 -13.6755 23.0222 -14.4858 20.3382
1193 1 -9.22569 -14.8336 -12.8526 -9.22569 -14.8336 -12.8526
82 1 -9.11992 -14.6363 -14.7455 -9.11992 -14.6363 -14.7455
7688 1 -8.05872 -15.4671 -13.6951 -8.05872 -15.4671 20.3186
10535 1 -7.15274 -15.1065 -13.2731 26.861 -15.1065 -13.2731
3417 1 -6.08378 -16.4906 -13.6383 -6.08378 -16.4906 20.3754
11914 1 -4.45044 -15.4304 -12.7096 -4.45044 -15.4304 21.3041
804 1 -2.15864 -15.81 -13.0606 -2.15864 -15.81 -13.0606
10087 1 -1.70984 -15.369 -14.5945 -1.70984 -15.369 -14.5945
9239 1 -15.2782 -12.955 -13.3514 18.7355 21.0587 -13.3514
8453 1 -15.1066 -13.2095 -14.5263 18.9071 -13.2095 -14.5263
10181 1 -14.9627 -13.4261 -12.4031 19.051 -13.4261 -12.4031
16266 1 -14.7729 -13.9616 -13.8373 19.2408 20.0521 -13.8373
2238 1 -13.6658 -13.2475 -12.3394 -13.6658 -13.2475 21.6743
2868 1 -12.1019 -12.9795 -14.9704 -12.1019 -12.9795 19.0433
1663 1 -9.82261 -12.3284 -13.2579 -9.82261 -12.3284 -13.2579
3070 1 -7.87694 -13.061 -12.9052 -7.87694 -13.061 21.1085
1339 1 -6.97283 -13.9338 -13.4607 -6.97283 -13.9338 -13.4607
12550 1 -4.73191 -13.8636 -13.6435 -4.73191 -13.8636 -13.6435
5291 1 -3.90683 -13.249 -12.8687 -3.90683 20.7647 -12.8687
10121 1 -1.61995 -14.3652 -13.4229 -1.61995 -14.3652 -13.4229
8889 1 -1.67427 -13.1202 -14.5681 -1.67427 -13.1202 -14.5681
4680 1 -0.174013 -14.2108 -12.9954 -0.174013 19.8029 -12.9954
7695 1 -15.8581 -11.939 -14.1961 -15.8581 22.0748 19.8176
5502 1 -16.7619 -11.7376 -13.7196 -16.7619 22.2761 -13.7196
12609 1 -15.0023 -11.5767 -13.2028 19.0114 22.437 -13.2028
10207 1 -14.5846 -11.6026 -14.2735 19.4291 -11.6026 -14.2735
273 1 -12.1285 -11.9508 -13.8555 -12.1285 -11.9508 -13.8555
5086 1 -12.7422 -13.0373 -14.0446 -12.7422 20.9764 19.9691
12886 1 -11.1857 -12.5147 -13.9005 -11.1857 21.499 -13.9005
10741 1 -8.23996 -12.1833 -14.5716 25.7737 -12.1833 -14.5716
6512 1 -6.61054 -11.4235 -13.7306 -6.61054 22.5902 20.2831
602 1 -5.45695 -10.6959 -13.3296 -5.45695 -10.6959 -13.3296
11234 1 -3.89565 -12.1584 -13.9168 -3.89565 -12.1584 20.0969
2490 1 -4.90748 -11.7835 -13.786 -4.90748 -11.7835 20.2277
12783 1 -2.56652 -13.1695 -13.5262 -2.56652 20.8442 -13.5262
7166 1 -1.77301 -11.4489 -13.3896 -35.7867 22.5648 20.6241
1763 1 -0.7805 -12.657 -13.2493 -0.7805 -12.657 -13.2493
6853 1 -15.6008 -10.5886 -13.7108 -15.6008 23.4252 20.3029
256 1 -14.4426 -10.0627 -12.5513 -14.4426 -10.0627 -12.5513
8527 1 -13.141 -11.0573 -13.6139 20.8727 -11.0573 -13.6139
8583 1 -12.0611 -10.8688 -14.2069 -12.0611 -10.8688 -14.2069
11950 1 -10.2273 -11.5964 -14.3435 23.7864 -11.5964 19.6703
1798 1 -9.44598 -10.9138 -12.1509 -9.44598 -10.9138 -12.1509
3645 1 -9.69054 -10.3219 -13.845 -9.69054 -10.3219 20.1687
13343 1 -8.41532 -10.5298 -13.8882 -8.41532 23.4839 -13.8882
8967 1 -8.77723 -11.3084 -13.0402 25.2365 -11.3084 -13.0402
3547 1 -7.45118 -10.3988 -13.2218 -7.45118 -10.3988 20.7919
516 1 -4.10787 -10.6493 -14.0784 -4.10787 -10.6493 -14.0784
16370 1 -5.63589 -10.3915 -14.3367 -5.63589 23.6222 19.677
839 1 -5.41568 -11.2437 -11.9423 -5.41568 -11.2437 -11.9423
10240 1 -1.28731 -9.88115 -12.831 -1.28731 -9.88115 -12.831
8294 1 -0.913179 -11.1786 -14.5228 -0.913179 -11.1786 -14.5228
6230 1 -1.50516 -9.37135 -14.0637 -1.50516 -9.37135 19.95
6882 1 -12.7391 -16.7721 -10.6878 -12.7391 17.2416 -10.6878
1719 1 -14.7824 -9.02909 -13.2549 -14.7824 -9.02909 -13.2549
9831 1 -14.241 -8.14894 -12.5972 19.7727 -8.14894 -12.5972
10385 1 -11.9941 -9.79142 -12.1934 22.0196 -9.79142 -12.1934
4269 1 -11.216 -9.77492 -14.2913 -11.216 -9.77492 -14.2913
845 1 -10.2311 -8.37305 -12.5096 -10.2311 -8.37305 -12.5096
2569 1 -11.1468 -9.88064 -13.2306 -11.1468 -9.88064 20.7831
9906 1 -10.0572 -8.60936 -14.3386 -10.0572 -8.60936 -14.3386
15986 1 -8.95474 -9.26036 -12.0607 -8.95474 -9.26036 21.9531
12785 1 -8.78687 -9.65826 -13.1346 -8.78687 -9.65826 -13.1346
5116 1 -5.23254 -9.53533 -13.4635 -5.23254 -9.53533 -13.4635
1831 1 -3.40897 -10.3811 -12.5306 -3.40897 -10.3811 -12.5306
8657 1 -3.89763 -9.52604 -14.8556 -3.89763 -9.52604 -14.8556
13768 1 -0.409008 -9.28744 -12.9784 -0.409008 24.7263 -12.9784
809 1 -9.98542 -11.1743 -0.0465671 -9.98542 -11.1743 -34.0603
2368 1 -15.9928 -7.83197 -14.0763 -15.9928 -7.83197 19.9374
7447 1 -13.68 -8.43754 -13.7043 -13.68 -8.43754 20.3094
2381 1 -11.9735 -8.00266 -12.8724 -11.9735 -8.00266 21.1414
2243 1 -8.58275 -8.27225 -12.643 -8.58275 -8.27225 21.3707
2163 1 -10.0246 -6.55901 -14.6806 -10.0246 -6.55901 19.3331
14117 1 -8.87133 -7.67186 -13.7519 -8.87133 -7.67186 -13.7519
8384 1 -7.15033 -7.53586 -14.2193 -7.15033 -7.53586 -14.2193
13515 1 -6.5734 -8.24123 -12.5678 27.4403 -8.24123 -12.5678
9939 1 -5.09912 -8.54415 -12.5405 -5.09912 -8.54415 -12.5405
4474 1 -3.49281 -9.28705 -13.2231 -3.49281 24.7267 -13.2231
4941 1 -2.40585 -7.35447 -12.989 -2.40585 26.6592 -12.989
2454 1 -0.646378 -7.78219 -13.3502 -0.646378 -7.78219 -13.3502
12283 1 -1.06417 -6.65975 -12.653 -1.06417 -6.65975 21.3607
3649 1 -15.8117 -5.99372 -14.9735 -15.8117 -5.99372 -14.9735
12175 1 -16.4048 -6.72456 -13.8603 17.6089 -6.72456 20.1534
11955 1 -14.7468 -5.5494 -15.2672 -14.7468 -5.5494 18.7465
6725 1 -13.2801 -6.75465 -13.8888 -13.2801 -6.75465 20.1249
1710 1 -13.7645 -5.95619 -13.2968 -13.7645 -5.95619 -13.2968
10399 1 -12.464 -5.63094 -13.4386 21.5497 -5.63094 -13.4386
763 1 -11.3138 -6.60546 -13.7163 -11.3138 -6.60546 -13.7163
6141 1 -8.25365 -7.19678 -12.2779 -8.25365 26.8169 21.7358
5168 1 -8.40241 -5.44143 -14.0908 -8.40241 -5.44143 -14.0908
12043 1 -8.21324 -6.48982 -14.5994 -8.21324 -6.48982 19.4143
12149 1 -7.56367 -6.15273 -12.9108 -7.56367 -6.15273 21.1029
13514 1 -7.07738 -7.31381 -13.0371 -7.07738 -7.31381 -13.0371
10354 1 -6.17563 -6.61565 -12.2323 27.8381 -6.61565 -12.2323
12742 1 -4.62502 -6.34185 -12.663 -4.62502 27.6719 -12.663
1677 1 -3.34472 -5.39226 -13.5029 -3.34472 -5.39226 -13.5029
9790 1 -1.49946 -5.21982 -14.8874 -1.49946 -5.21982 -14.8874
6378 1 -2.51464 -5.97095 -14.5493 -2.51464 -5.97095 19.4644
10683 1 -1.85408 -7.2235 -14.2571 -1.85408 -7.2235 19.7567
15775 1 -14.9992 -5.33585 -13.9972 19.0145 -5.33585 20.0165
4388 1 -16.7887 -0.419348 -16.678 -16.7887 -0.419348 -16.678
9666 1 -14.7884 -6.30354 -13.257 19.2253 -6.30354 -13.257
2735 1 -12.9896 -6.07695 -14.8049 -12.9896 -6.07695 -14.8049
12483 1 -11.5529 -5.86515 -12.7529 -11.5529 -5.86515 -12.7529
11190 1 -10.0318 -5.89643 -13.4608 -10.0318 -5.89643 20.5529
1336 1 -10.9102 -4.38905 -13.2002 -10.9102 -4.38905 -13.2002
7404 1 -8.69091 -4.56885 -13.3764 -8.69091 -4.56885 20.6373
9539 1 -7.23789 -4.76002 -13.8023 -7.23789 -4.76002 -13.8023
11751 1 -5.40799 -6.10507 -13.3449 28.6057 -6.10507 20.6688
11915 1 -4.71412 -5.48853 -14.54 -4.71412 -5.48853 19.4737
3114 1 -3.47449 -4.10964 -13.5799 -3.47449 -4.10964 -13.5799
14414 1 -2.78236 -4.66999 -12.3228 -2.78236 -4.66999 21.691
6601 1 -1.79833 -5.81423 -13.4405 -1.79833 -5.81423 20.5732
5723 1 -16.3575 -7.34843 -16.1093 -16.3575 26.6653 -16.1093
5076 1 -16.1175 -2.66717 -12.7836 -16.1175 31.3465 -12.7836
3574 1 -14.9669 -4.05913 -12.7901 -14.9669 -4.05913 21.2236
7197 1 -14.0361 -4.20293 -14.0171 -14.0361 -4.20293 19.9966
4904 1 -12.565 -4.26401 -13.2417 -12.565 -4.26401 -13.2417
2498 1 -12.6825 -4.86327 -12.1407 -12.6825 -4.86327 -12.1407
622 1 -9.72085 -3.22034 -12.535 -9.72085 -3.22034 -12.535
10506 1 -10.6405 -5.11438 -14.0078 23.3732 -5.11438 20.0059
9221 1 -7.30998 -3.58977 -13.9428 -7.30998 -3.58977 -13.9428
10130 1 -6.27287 -4.32918 -13.0295 27.7408 -4.32918 -13.0295
15523 1 -6.5255 -3.08847 -13.2457 -6.5255 -3.08847 20.768
8390 1 -5.37952 -4.82078 -13.7436 -5.37952 -4.82078 -13.7436
8961 1 -4.59181 -1.71104 -14.849 -4.59181 -1.71104 -14.849
3095 1 -4.69882 -3.77418 -14.5167 -4.69882 -3.77418 19.4971
4386 1 -1.66085 -3.3927 -12.9049 -1.66085 -3.3927 -12.9049
12405 1 -0.164031 -3.43537 -13.0337 -0.164031 -3.43537 -13.0337
2366 1 -16.3896 -1.03973 -12.971 -16.3896 -1.03973 21.0427
14447 1 -13.9952 -2.34577 -14.7642 20.0185 -2.34577 19.2495
8736 1 -14.6726 -1.75926 -13.2705 19.3411 -1.75926 -13.2705
1527 1 -12.8887 -1.7359 -14.1307 -12.8887 -1.7359 -14.1307
11740 1 -10.5036 -1.92919 -14.0776 23.5101 -1.92919 19.9361