ITEM: TIMESTEP
6500
ITEM: NUMBER OF ATOMS
16384
ITEM: BOX BOUNDS pp pp pp
-1.7006855707231768e+01 1.7006855707231768e+01
-1.7006855707231768e+01 1.7006855707231768e+01
-1.7006855707231768e+01 1.7006855707231768e+01
ITEM: ATOMS id type x y z xu yu zu
9608 1 -0.166898 -6.07717 -10.255 -0.166898 -6.07717 -10.255
5000 1 -16.8842 -15.8759 -15.9421 17.1295 18.1378 18.0716
6256 1 -15.375 -16.2609 -16.1013 -15.375 17.7528 17.9124
5786 1 -13.5533 -16.0936 -15.9055 -13.5533 17.9201 -15.9055
3418 1 -12.1841 -15.7223 -16.0915 -12.1841 -15.7223 17.9222
927 1 -16.6658 -11.9319 -1.29153 -16.6658 -11.9319 -1.29153
437 1 -9.76505 -16.501 -16.7374 -9.76505 -16.501 -16.7374
15997 1 -9.36812 -16.0599 -15.5768 -9.36812 17.9538 18.4369
2599 1 -8.47243 -16.2527 -16.9229 -8.47243 -16.2527 17.0909
3899 1 -7.75138 -15.9042 -15.6243 -7.75138 -15.9042 18.3894
5030 1 -13.8538 -16.9048 -6.46418 -13.8538 17.1089 -6.46418
13961 1 -4.04481 -16.6055 -16.1289 -4.04481 17.4083 -16.1289
10478 1 -1.79273 -15.198 -16.6142 -1.79273 -15.198 17.3996
15536 1 -2.51017 -16.6927 -16.6997 -2.51017 17.321 -16.6997
14759 1 -1.10464 -16.1216 -16.5419 -1.10464 17.8921 17.4718
12844 1 -16.54 -14.7005 -16.0448 17.4737 19.3132 -16.0448
3782 1 -7.94153 -1.48674 -0.381101 -7.94153 -1.48674 -0.381101
2179 1 -15.2614 -16.8873 -3.64125 -15.2614 -16.8873 -3.64125
7981 1 -14.7052 -14.8064 -15.8667 -14.7052 19.2074 18.147
10387 1 -12.784 -14.8876 -16.8325 21.2297 -14.8876 17.1812
6866 1 -12.0603 -14.6444 -15.3361 -12.0603 19.3693 18.6776
4484 1 -10.3347 -15.5896 -16.2586 -10.3347 18.4242 -16.2586
2753 1 -11.0016 -14.6868 -16.5872 -11.0016 -14.6868 17.4265
4777 1 -7.10193 -0.272584 -1.76556 -7.10193 -0.272584 -1.76556
4718 1 -7.13546 -14.5074 -16.4576 -7.13546 -14.5074 -16.4576
910 1 -5.49242 -14.6159 -15.7728 -5.49242 -14.6159 -15.7728
11914 1 -2.935 -15.9213 -15.9121 -2.935 -15.9213 18.1016
5707 1 -2.5896 -14.1607 -16.5356 -2.5896 19.853 -16.5356
10084 1 -0.142028 -15.188 -15.8488 -0.142028 -15.188 -15.8488
15344 1 -16.2332 -13.4753 -14.8279 17.7805 20.5384 19.1859
8453 1 -15.0035 -13.6169 -15.7148 19.0102 -13.6169 -15.7148
6 1 -15.7141 -13.1912 -16.979 -15.7141 -13.1912 -16.979
2114 1 -13.2725 -13.5371 -15.7029 -13.2725 -13.5371 18.3108
14247 1 -12.7429 -13.4494 -16.8577 -12.7429 20.5643 -16.8577
3531 1 -10.6554 -12.9589 -16.5581 -10.6554 -12.9589 17.4556
6108 1 -7.37089 -0.330413 -10.902 -7.37089 -0.330413 -10.902
13995 1 -9.58121 -13.4672 -15.6072 -9.58121 20.5465 -15.6072
15533 1 -8.95176 -12.9219 -16.8408 -8.95176 -12.9219 -16.8408
1048 1 -5.52092 -13.2332 -16.169 -5.52092 -13.2332 -16.169
3934 1 -3.95631 -13.2268 -16.3762 -3.95631 -13.2268 17.6375
15205 1 -6.73513 -16.7275 -15.8475 27.2786 17.2862 18.1662
1065 1 -1.47369 -13.1782 -15.9946 -1.47369 -13.1782 -15.9946
254 1 -0.0762355 -13.8203 -15.6516 -0.0762355 -13.8203 -15.6516
6265 1 -7.22497 -11.2611 -16.7721 -7.22497 22.7526 17.2416
5472 1 -4.28813 -3.62198 -0.262607 -4.28813 -3.62198 -0.262607
228 1 -15.6962 -11.4977 -16.4646 -15.6962 -11.4977 -16.4646
16124 1 -2.029 -16.9118 -11.2961 -2.029 17.1019 22.7176
9359 1 -13.1873 -12.3179 -15.5803 20.8264 -12.3179 -15.5803
1281 1 -9.81212 -11.7943 -16.1648 -9.81212 -11.7943 -16.1648
2449 1 -8.32355 -11.6931 -16.6637 -8.32355 -11.6931 17.35
10922 1 -7.63952 -12.5237 -16.6537 -7.63952 -12.5237 17.36
10664 1 -6.0303 -11.4219 -15.4669 27.9834 -11.4219 18.5468
618 1 -3.59417 -12.1443 -15.7069 -3.59417 -12.1443 -15.7069
4700 1 -0.152941 -0.306193 -8.71011 -0.152941 -0.306193 -8.71011
989 1 -1.87978 -11.6279 -16.7638 -1.87978 -11.6279 -16.7638
6397 1 -0.961656 -11.9636 -15.6248 -0.961656 22.0501 18.3889
8635 1 -16.9905 -10.0349 -16.3315 17.0233 -10.0349 -16.3315
12058 1 -14.1338 -10.6707 -16.0704 19.8799 -10.6707 17.9434
4276 1 -15.4932 -10.4417 -15.9355 -15.4932 23.572 -15.9355
11319 1 -13.6022 -9.88955 -16.7337 20.4115 -9.88955 17.28
4146 1 -11.9968 -11.1267 -16.4612 -11.9968 22.887 -16.4612
4800 1 -17.0292 -6.32359 -4.20687 -17.0292 -6.32359 -4.20687
3662 1 -0.147433 -6.81967 -8.36712 -0.147433 -6.81967 -8.36712
271 1 -4.58388 -11.0075 -16.3055 -4.58388 -11.0075 -16.3055
9347 1 -3.36819 -10.5127 -16.9325 30.6455 -10.5127 -16.9325
2128 1 -2.59842 -11.2336 -15.2566 -2.59842 -11.2336 18.7571
11063 1 -2.02317 -10.5049 -16.7611 -2.02317 -10.5049 17.2526
10952 1 -0.415716 -11.5267 -16.8364 -0.415716 -11.5267 17.1773
7441 1 -6.05164 -16.9976 -1.54453 -6.05164 17.0161 -1.54453
8583 1 -12.1243 -9.96955 -16.5146 -12.1243 -9.96955 -16.5146
1145 1 -12.5074 -8.61099 -15.6286 -12.5074 -8.61099 -15.6286
15490 1 -10.5225 -16.728 -0.659953 23.4912 17.2857 -0.659953
4269 1 -10.8577 -8.90066 -15.5501 -10.8577 -8.90066 -15.5501
9592 1 -10.0355 -9.77744 -16.8548 -10.0355 -9.77744 -16.8548
6129 1 -7.35814 -9.49959 -16.2895 -7.35814 -9.49959 17.7242
13612 1 -9.37511 -9.36128 -16.0779 24.6386 -9.36128 -16.0779
2063 1 -5.62956 -9.40362 -16.1567 -5.62956 -9.40362 17.857
1666 1 -5.14677 -8.34895 -16.0725 -5.14677 -8.34895 -16.0725
10790 1 -3.54353 -10.1535 -15.727 -3.54353 -10.1535 18.2867
7473 1 -16.7838 -7.52432 -11.8598 -16.7838 -7.52432 -11.8598
2393 1 -2.59657 -9.3007 -16.5508 -2.59657 -9.3007 -16.5508
1531 1 -16.8626 -16.9535 -8.06669 -16.8626 -16.9535 -8.06669
9503 1 -12.0762 -12.4583 -16.7237 21.9375 -12.4583 -16.7237
8548 1 -1.01251 -9.71085 -16.7723 -1.01251 -9.71085 -16.7723
740 1 -9.86846 -17.0075 -2.46138 -9.86846 17.0062 -2.46138
5627 1 -16.0845 -8.17834 -16.2166 -16.0845 -8.17834 -16.2166
15778 1 -15.1666 -7.79166 -16.3584 18.8471 26.222 17.6553
3951 1 -14.0967 -8.75564 -16.7728 -14.0967 -8.75564 17.2409
702 1 -11.8739 -7.57008 -16.1652 -11.8739 -7.57008 -16.1652
7013 1 -12.5489 -8.48362 -16.8633 -12.5489 25.5301 17.1504
15414 1 -10.066 -8.44789 -16.9808 23.9478 -8.44789 17.0329
14117 1 -8.13881 -7.717 -14.8534 -8.13881 -7.717 -14.8534
948 1 -9.13292 -7.21167 -16.1417 -9.13292 -7.21167 -16.1417
3547 1 -6.57088 -7.74171 -16.7445 -6.57088 -7.74171 17.2692
11112 1 -7.46105 -8.25713 -15.6209 -7.46105 -8.25713 18.3928
461 1 -3.95943 -7.12008 -16.5441 -3.95943 -7.12008 -16.5441
8421 1 -2.62477 -8.23227 -15.7596 -2.62477 -8.23227 -15.7596
1501 1 -2.33148 -0.0367908 -12.7052 -2.33148 -0.0367908 -12.7052
528 1 -15.883 -5.39899 -16.6634 -15.883 -5.39899 -16.6634
2798 1 -16.7859 -6.94349 -16.1991 17.2278 -6.94349 17.8147
11614 1 -13.669 -7.26613 -16.3102 20.3447 -7.26613 17.7035
9267 1 -14.5654 -5.71312 -16.7424 19.4483 -5.71312 -16.7424
10097 1 -6.41658 -16.5434 -10.2384 -6.41658 -16.5434 -10.2384
3649 1 -14.0733 -6.691 -15.345 -14.0733 -6.691 -15.345
2832 1 -12.8547 -6.56694 -16.0415 -12.8547 -6.56694 17.9722
9303 1 -13.4592 -16.5608 -5.1857 20.5545 -16.5608 -5.1857
324 1 -9.62944 -6.0021 -15.6822 -9.62944 -6.0021 -15.6822
12459 1 -8.03114 -6.34867 -15.3759 -8.03114 27.665 -15.3759
476 1 -5.33389 -7.45319 -16.5621 -5.33389 -7.45319 -16.5621
7837 1 -3.52414 -5.61198 -15.9253 -3.52414 -5.61198 18.0884
15213 1 -2.43774 -6.70976 -16.5417 -2.43774 27.3039 17.472
4208 1 -2.29549 -16.9241 -1.65054 -2.29549 17.0896 -1.65054
4453 1 -7.72172 -16.6191 -3.9457 -7.72172 17.3946 -3.9457
15421 1 -1.28674 -7.24471 -16.178 -1.28674 26.769 -16.178
5549 1 -8.56169 -8.69557 -0.784168 -8.56169 25.3181 -0.784168
2254 1 -16.887 -4.73515 -15.6908 -16.887 -4.73515 18.3229
5891 1 -15.155 -4.35711 -15.9798 -15.155 -4.35711 -15.9798
2288 1 -13.1396 -5.20284 -16.7843 -13.1396 -5.20284 17.2294
11087 1 -13.0829 -5.72573 -15.5377 -13.0829 -5.72573 18.476
8388 1 -11.933 -5.32018 -16.5862 -11.933 -5.32018 -16.5862
570 1 -11.9666 -4.32665 -16.4266 -11.9666 -4.32665 -16.4266
1867 1 -10.224 -5.13465 -16.6715 -10.224 -5.13465 -16.6715
15759 1 -11.1167 -16.7907 -4.46566 22.897 17.223 29.5481
11930 1 -11.2184 -5.8425 -15.4183 22.7953 -5.8425 18.5954
14187 1 -8.76359 -5.45637 -16.679 25.2501 -5.45637 -16.679
11415 1 -7.41785 -5.53829 -16.6655 26.5959 -5.53829 17.3482
1020 1 -5.92781 -5.15781 -16.7361 -5.92781 -5.15781 -16.7361
7149 1 -5.19764 -6.54147 -16.9298 -5.19764 -6.54147 17.084
7755 1 -9.37061 -16.8099 -10.3031 -9.37061 17.2039 23.7106
9314 1 -2.74177 -4.56324 -16.235 -2.74177 -4.56324 -16.235
1707 1 -0.778953 -5.21847 -15.058 -0.778953 -5.21847 -15.058
12429 1 -0.87467 -5.2217 -16.5845 -0.87467 28.792 -16.5845
865 1 -13.6484 -4.16943 -15.8289 -13.6484 -4.16943 -15.8289
15607 1 -13.5428 -2.23016 -16.4447 20.4709 -2.23016 17.569
2906 1 -11.0311 -3.01243 -16.4467 -11.0311 -3.01243 17.567
13341 1 -5.65208 -16.5198 -9.32654 -5.65208 17.4939 -9.32654
9624 1 -8.43159 -3.85117 -16.5512 25.5821 -3.85117 -16.5512
5081 1 -6.7743 -3.60731 -16.9625 -6.7743 -3.60731 -16.9625
7782 1 -6.40641 -3.47879 -15.5881 -6.40641 -3.47879 18.4256
762 1 -5.71196 -4.39585 -15.9127 -5.71196 -4.39585 -15.9127
2026 1 -4.3498 -2.97455 -16.1705 -4.3498 -36.9883 -16.1705
9145 1 -3.77391 -4.01601 -15.9086 -3.77391 -4.01601 -15.9086
1606 1 -1.33115 -4.04382 -15.885 -1.33115 -4.04382 -15.885
9082 1 -1.19296 -2.56942 -16.7663 -1.19296 -2.56942 -16.7663
2252 1 -0.575468 -3.43441 -16.3526 -0.575468 -3.43441 17.6611
1528 1 -8.64764 -0.369819 -1.04254 -8.64764 -0.369819 -1.04254
9149 1 -16.0313 -2.58295 -15.7275 17.9824 -2.58295 -15.7275
13684 1 -15.0664 -1.88085 -16.4909 18.9473 -1.88085 -16.4909
3051 1 -13.1769 -1.53914 -15.7665 -13.1769 -1.53914 18.2473
10814 1 -12.3888 -2.82133 -16.2808 21.625 -2.82133 -16.2808
7687 1 -0.0400665 -3.30039 -3.08805 -0.0400665 -3.30039 -3.08805
11153 1 -10.1912 -2.49574 -16.7891 23.8225 -2.49574 17.2246
6578 1 -10.6639 -1.93865 -15.8535 -10.6639 -1.93865 18.1602
5665 1 -9.12285 -1.88574 -16.4259 -9.12285 -1.88574 -16.4259
1487 1 -7.97564 -2.58527 -16.6813 -7.97564 -2.58527 -16.6813
12222 1 -6.70916 -2.32115 -16.639 -6.70916 -2.32115 17.3747
8459 1 -5.77441 -2.70703 -16.8174 -5.77441 -2.70703 -16.8174
10407 1 -3.26791 -2.32544 -16.6447 -3.26791 -2.32544 -16.6447
1589 1 -13.9092 -0.232224 -7.64328 -13.9092 -0.232224 -7.64328
953 1 -0.773355 -1.14299 -16.2856 -0.773355 -1.14299 -16.2856
16350 1 -16.7442 -1.72996 -16.6895 17.2695 -1.72996 17.3242
5315 1 -14.6599 -0.155899 -16.2474 -14.6599 -0.155899 -16.2474
819 1 -10.8426 -0.471826 -12.4878 -10.8426 -0.471826 -12.4878
117 1 -16.9042 -13.4209 -10.5393 -16.9042 -13.4209 -10.5393
15340 1 -16.1564 -2.28511 -3.27839 17.8573 -2.28511 -3.27839
2291 1 -11.3727 -0.957568 -15.8333 -11.3727 -0.957568 18.1804
16358 1 -7.79151 -0.810112 -16.4333 26.2222 -0.810112 17.5804
64 1 -9.70949 -0.822165 -16.1236 -9.70949 -0.822165 -16.1236
6799 1 -5.97408 -0.658805 -16.3202 -5.97408 -0.658805 17.6935
7046 1 -10.9123 -0.0855975 -7.18642 -10.9123 -0.0855975 26.8273
3835 1 -4.05472 -0.114988 -15.6668 -4.05472 -0.114988 18.3469
4790 1 -2.83567 -0.242609 -15.8164 -2.83567 -0.242609 -15.8164
12294 1 -1.41651 -0.955842 -15.5421 -1.41651 -0.955842 18.4717
12326 1 -15.3193 -16.6048 -14.2794 18.6944 -16.6048 19.7344
13193 1 -14.2952 -16.081 -14.897 19.7185 17.9327 -14.897
4829 1 -11.4681 -15.9924 -15.2294 -11.4681 18.0213 -15.2294
83 1 -0.0974995 -5.52464 -7.07817 -0.0974995 -5.52464 -7.07817
3725 1 -10.4402 -16.3337 -15.2723 -10.4402 -16.3337 18.7414
10093 1 -8.5655 -16.6995 -15.1079 25.4482 -16.6995 -15.1079
2298 1 -7.85241 -15.8108 -13.972 -7.85241 -15.8108 20.0417
14307 1 -5.54118 -16.3611 -15.5021 28.4725 17.6527 -15.5021
1661 1 -4.34706 -16.0603 -14.7064 -4.34706 -16.0603 -14.7064
4616 1 -2.07335 -16.3636 -14.527 -2.07335 17.6501 -14.527
10502 1 -0.803231 -16.4674 -14.9129 33.2105 -16.4674 19.1008
1229 1 -0.621161 -16.2625 -13.6315 -0.621161 -16.2625 -13.6315
10250 1 -15.8183 -15.17 -14.5483 18.1954 -15.17 -14.5483
7800 1 -15.333 -14.1059 -14.5165 -15.333 19.9078 19.4972
14994 1 -12.7352 -15.6337 -14.8193 21.2785 18.3801 19.1944
1414 1 -13.1443 -14.7412 -15.3102 -13.1443 -14.7412 -15.3102
9994 1 -12.1819 -13.9351 -14.237 21.8318 -13.9351 -14.237
12676 1 -10.5587 -14.8981 -15.1095 23.455 19.1156 -15.1095
7734 1 -9.34825 -14.5403 -15.3273 -9.34825 19.4734 18.6864
9102 1 -8.18969 -14.6784 -15.9151 -8.18969 -14.6784 -15.9151
1970 1 -6.59202 -15.7078 -14.9575 -6.59202 -15.7078 -14.9575
10048 1 -6.60522 -14.1909 -15.2164 -6.60522 -14.1909 -15.2164
12118 1 -5.12733 -14.8596 -14.5023 -5.12733 -14.8596 -14.5023
15814 1 -4.79905 -15.6871 -15.8947 -4.79905 18.3266 18.119
5291 1 -3.85686 -14.9728 -15.3961 -3.85686 19.0409 -15.3961
11359 1 -2.57213 -15.0784 -14.6189 -2.57213 -15.0784 19.3948
15558 1 -0.759652 -15.0295 -14.5892 -0.759652 18.9842 19.4245
9239 1 -16.1672 -12.9417 -13.9575 17.8465 21.0721 -13.9575
4910 1 -16.4138 -12.435 -15.6359 -16.4138 -12.435 -15.6359
1603 1 -14.6366 -13.1093 -14.6397 -14.6366 -13.1093 -14.6397
11940 1 -12.3802 -12.9278 -14.9551 21.6336 -12.9278 19.0586
6463 1 -11.3425 -13.7027 -15.4644 -11.3425 20.3111 18.5493
2238 1 -12.0545 -13.0666 -13.3216 -12.0545 -13.0666 20.6921
10862 1 -10.8473 -12.5676 -14.9082 23.1664 -12.5676 19.1055
14619 1 -10.5524 -14.1401 -14.0031 23.4613 19.8736 -14.0031
12072 1 -9.51377 -13.0754 -13.9376 24.4999 -13.0754 20.0761
3745 1 -8.37632 -13.6101 -14.7972 -8.37632 -13.6101 19.2165
5482 1 -7.762 -13.4826 -16.1862 -7.762 20.5311 -16.1862
4030 1 -7.18628 -13.233 -14.3587 -7.18628 -13.233 19.6551
11234 1 -4.20598 -12.8498 -15.1048 -4.20598 -12.8498 18.9089
12295 1 -4.83703 -13.5416 -14.131 -4.83703 -13.5416 19.8827
321 1 -3.23546 -13.3899 -14.5004 -3.23546 -13.3899 -14.5004
10788 1 -2.67563 -14.1182 -15.2939 31.3381 -14.1182 18.7198
7564 1 -2.66921 -12.7877 -16.4018 -2.66921 21.226 17.6119
3103 1 -16.7227 -11.7411 -14.4145 -16.7227 -11.7411 19.5992
8954 1 -5.75442 -9.57986 -0.330911 28.2593 -9.57986 -0.330911
888 1 -14.6089 -12.5857 -16.1127 -14.6089 -12.5857 -16.1127
736 1 -13.1548 -11.8546 -14.2546 -13.1548 -11.8546 -14.2546
4814 1 -11.5965 -12.2795 -15.6809 -11.5965 21.7342 -15.6809
11950 1 -10.3046 -11.6571 -13.2903 23.7091 -11.6571 20.7234
8774 1 -9.49979 -12.1798 -15.0762 -9.49979 -12.1798 -15.0762
12208 1 -7.3389 -10.9751 -15.6776 26.6748 -10.9751 18.3361
312 1 -8.14885 -12.3251 -15.1277 -8.14885 -12.3251 18.886
4980 1 -7.67873 -11.7508 -14.3813 -7.67873 -11.7508 -14.3813
3906 1 -6.72161 -12.7506 -15.4868 -6.72161 -12.7506 18.5269
13343 1 -6.52022 -11.6468 -14.0722 -6.52022 22.367 -14.0722
11401 1 -5.17747 -12.555 -15.3724 -5.17747 -12.555 18.6413
12783 1 -2.18795 -12.3113 -14.7037 -2.18795 21.7024 -14.7037
516 1 -2.1081 -11.1513 -13.858 -2.1081 -11.1513 -13.858
10844 1 -1.38576 -12.9693 -14.5926 -1.38576 -12.9693 19.4211
9246 1 -8.13112 -10.2694 -16.7781 25.8826 -10.2694 -16.7781
4923 1 -15.9781 -10.4465 -14.8382 -15.9781 23.5673 -14.8382
305 1 -15.3169 -11.6671 -15.227 -15.3169 -11.6671 -15.227
2868 1 -12.5686 -10.9955 -15.1239 -12.5686 -10.9955 18.8898
10385 1 -13.8676 -11.0323 -14.4311 20.1461 -11.0323 -14.4311
8965 1 -10.8712 -9.92493 -15.8652 23.1425 -9.92493 -15.8652
8937 1 -10.8462 -11.2686 -15.062 23.1675 -11.2686 -15.062
8072 1 -9.76757 -10.5734 -15.9334 -9.76757 23.4403 18.0803
1798 1 -8.40439 -11.0315 -15.2083 -8.40439 -11.0315 -15.2083
4413 1 -9.27165 -11.1793 -14.5865 -9.27165 22.8344 -14.5865
6141 1 -8.45964 -9.75833 -15.3012 -8.45964 24.2554 18.7126
5116 1 -6.19577 -10.3387 -15.8967 -6.19577 -10.3387 -15.8967
15986 1 -7.40999 -10.0325 -14.3841 -7.40999 -10.0325 19.6297
10137 1 -4.45473 -10.959 -14.9106 -4.45473 -10.959 -14.9106
3125 1 -5.09664 -9.61163 -15.1049 -5.09664 -9.61163 18.9088
9355 1 -0.973434 -10.925 -14.8403 -0.973434 -10.925 19.1734
1348 1 -16.4316 -9.27769 -15.5182 -16.4316 -9.27769 -15.5182
15695 1 -15.6672 -9.23499 -14.3638 18.3465 24.7787 19.6499
10243 1 -14.8373 -9.43332 -15.4404 -14.8373 -9.43332 -15.4404
13199 1 -13.2908 -9.7281 -15.3423 -13.2908 24.2856 -15.3423
11013 1 -13.9984 -8.31588 -15.6914 20.0153 -8.31588 18.3224
5086 1 -11.9254 -8.98614 -13.8967 -11.9254 25.0276 20.1171
14050 1 -11.7762 -9.64654 -14.8454 22.2375 24.3672 19.1683
2243 1 -10.598 -9.3047 -13.8741 -10.598 -9.3047 20.1396
9906 1 -9.53475 -9.41673 -15.0943 -9.53475 -9.41673 -15.0943
2163 1 -10.4796 -8.14092 -14.7137 -10.4796 -8.14092 19.3
8711 1 -7.95186 -8.93324 -14.4906 -7.95186 -8.93324 -14.4906
2490 1 -5.76194 -10.2167 -14.0804 -5.76194 -10.2167 19.9333
1321 1 -6.78035 -9.4216 -14.9601 -6.78035 -9.4216 -14.9601
5446 1 -3.6945 -8.74193 -15.3633 -37.7082 -8.74193 -15.3633
3816 1 -1.82979 -9.95498 -15.4641 -1.82979 -9.95498 18.5496
11018 1 -2.44443 -8.53827 -14.6265 -2.44443 -8.53827 19.3872
9400 1 -15.0902 -7.45241 -14.9911 18.9235 -7.45241 19.0226
7447 1 -12.8623 -7.75439 -15.1517 -12.8623 -7.75439 18.8621
12124 1 -11.8641 -7.86271 -14.9827 -11.8641 -7.86271 -14.9827
12672 1 -10.0917 -7.52012 -15.916 23.922 -7.52012 -15.916
7029 1 -6.20537 -8.08163 -15.2424 -6.20537 25.9321 18.7713
9939 1 -7.04137 -7.31224 -14.0967 -7.04137 -7.31224 -14.0967
1727 1 -4.64561 -8.42898 -14.5697 -4.64561 -8.42898 -14.5697
11923 1 -1.54765 -8.56513 -15.4855 -1.54765 -8.56513 -15.4855
1248 1 -1.14803 -7.3225 -14.527 -1.14803 -7.3225 -14.527
3763 1 -14.8337 -3.41184 -0.0882077 -14.8337 -3.41184 -0.0882077
12128 1 -15.6849 -6.2757 -15.6827 -15.6849 -6.2757 -15.6827
224 1 -14.6116 -5.60866 -14.7955 -14.6116 -5.60866 -14.7955
8777 1 -11.6467 -5.77548 -14.3981 -11.6467 -5.77548 19.6156
2478 1 -11.3807 -6.91135 -14.7034 -11.3807 -6.91135 19.3103
10453 1 -9.08271 -6.93659 -14.8118 24.931 -6.93659 19.2019
12771 1 -7.27313 -5.42447 -15.068 -7.27313 28.5892 -15.068
12043 1 -5.73651 -6.38595 -15.6109 -5.73651 -6.38595 18.4028
8384 1 -4.10177 -6.36177 -15.3332 -4.10177 -6.36177 -15.3332
9034 1 -3.12598 -6.93086 -14.9673 -3.12598 -6.93086 -14.9673
4941 1 -2.3859 -7.26419 -14.2947 -2.3859 26.7495 -14.2947
4062 1 -0.504283 -6.43656 -15.3308 -0.504283 -6.43656 -15.3308
13312 1 -16.0389 -4.95061 -14.8532 17.9748 -4.95061 -14.8532
4904 1 -13.6325 -4.7409 -14.8693 -13.6325 -4.7409 -14.8693
15042 1 -9.9571 -4.92704 -15.2993 24.0566 -4.92704 18.7144
11190 1 -9.00231 -4.0277 -14.6795 -9.00231 -4.0277 19.3342
10909 1 -9.378 -5.4341 -13.9398 24.6357 -5.4341 20.0739
11751 1 -6.97964 -5.59605 -13.7306 27.0341 -5.59605 20.2831
3885 1 -8.62172 -5.16561 -15.1788 -8.62172 -5.16561 18.8349
122 1 -7.0646 -3.78713 -14.2371 -7.0646 -3.78713 -14.2371
14071 1 -6.08699 -5.3196 -14.9762 -6.08699 28.6941 -14.9762
2242 1 -4.78215 -5.33855 -15.6368 -4.78215 -5.33855 18.3769
8984 1 -3.94802 -4.87468 -14.6709 -3.94802 -4.87468 -14.6709
5143 1 -1.84091 -5.3589 -15.5011 -1.84091 -5.3589 -15.5011
1677 1 -2.3081 -5.19447 -14.1798 -2.3081 -5.19447 -14.1798
16163 1 -15.2623 -3.42646 -15.166 18.7514 -3.42646 18.8477
9620 1 -14.5934 -3.00595 -14.3776 19.4204 -3.00595 -14.3776
5131 1 -12.441 -3.91682 -15.3635 -12.441 -3.91682 -15.3635
7698 1 -10.9235 -4.12096 -15.2405 -10.9235 -4.12096 18.7732
10506 1 -7.92998 -3.14919 -15.0138 26.0837 -3.14919 19
8871 1 -5.38146 -2.38328 -15.7756 28.6323 -2.38328 -15.7756
8515 1 -5.77509 -3.95607 -14.9769 28.2386 -3.95607 -14.9769
5089 1 -3.73252 -3.27194 -14.8548 -3.73252 -3.27194 -14.8548
11231 1 -2.05025 -3.75065 -15.0583 -2.05025 -3.75065 18.9554
6601 1 -0.994686 -3.40588 -14.4998 -0.994686 -3.40588 19.5139
2366 1 -15.9539 -1.89059 -14.9255 -15.9539 -1.89059 19.0882
10583 1 -13.5962 -2.74624 -14.7995 20.4175 -2.74624 -14.7995
9079 1 -14.393 -1.79954 -14.8212 19.6207 -1.79954 -14.8212
12986 1 -11.2188 -3.00864 -14.9708 -11.2188 -3.00864 -14.9708
1279 1 -9.932 -3.19018 -15.5176 -9.932 -3.19018 -15.5176
13268 1 -11.3726 -1.69504 -14.8873 -11.3726 -1.69504 -14.8873
14550 1 -8.10682 -1.74024 -15.6685 -8.10682 -1.74024 18.3453
5352 1 -7.78702 -1.94988 -14.472 -7.78702 -1.94988 -14.472
12090 1 -5.79837 -2.04682 -14.3919 28.2153 -2.04682 19.6218
5220 1 -6.53156 -2.33562 -15.338 -6.53156 -2.33562 -15.338
3286 1 -5.11217 -1.31995 -15.4797 -5.11217 -1.31995 -15.4797
13560 1 -4.06438 -1.79879 -15.7265 -4.06438 -1.79879 -15.7265
12024 1 -2.56508 -2.22299 -14.4361 -2.56508 -2.22299 19.5776
2980 1 -2.00536 -2.18666 -15.6164 -2.00536 -2.18666 -15.6164
10391 1 -0.165167 -2.77261 -15.3678 -0.165167 -2.77261 -15.3678
12405 1 -0.437094 -1.88103 -14.4254 -0.437094 -1.88103 -14.4254
12753 1 -15.4789 -1.10574 -15.947 18.5349 -1.10574 -15.947
12660 1 -15.1236 -0.75192 -14.8811 18.8901 -0.75192 -14.8811
8427 1 -12.2506 -0.448935 -15.2546 21.7631 -0.448935 -15.2546
7006 1 -10.3547 -0.999889 -14.8072 -10.3547 -0.999889 19.2065
3495 1 -9.0036 -1.28823 -14.6938 -9.0036 -1.28823 19.3199
2191 1 -8.18469 -0.299328 -14.6252 -8.18469 -0.299328 19.3885
3147 1 -6.79907 -1.29385 -15.331 -6.79907 -1.29385 18.6827
9361 1 -4.94506 -0.265354 -14.7219 -4.94506 -0.265354 -14.7219
7102 1 -3.82239 -1.18545 -14.4475 -3.82239 32.8283 19.5662
1047 1 -3.04463 -1.38778 -15.5275 -3.04463 -1.38778 -15.5275
4329 1 -0.593846 -0.300941 -14.5687 -0.593846 -0.300941 -14.5687
4859 1 -16.5813 -16.1792 -13.2951 -16.5813 17.8345 -13.2951
8786 1 -14.5012 -15.0935 -14.257 19.5125 -15.0935 -14.257
2939 1 -15.7636 -16.8198 -13.1718 -15.7636 -16.8198 20.842
2648 1 -14.4635 -16.9945 -12.6168 -14.4635 -16.9945 21.3969
8535 1 -13.4534 -15.9147 -13.312 -13.4534 -15.9147 -13.312
4438 1 -11.7755 -15.8671 -14.0956 -11.7755 18.1466 -14.0956
3967 1 -12.3644 -15.2667 -13.3285 -12.3644 -15.2667 20.6852
7751 1 -10.0774 -16.0623 -14.1759 -10.0774 17.9514 19.8378
1013 1 -10.8699 -16.3382 -12.8784 -10.8699 -16.3382 -12.8784
139 1 -0.439592 -9.47218 -2.45297 -0.439592 -9.47218 -2.45297
4519 1 -5.68891 -16.1798 -14.2715 -5.68891 17.8339 -14.2715
9278 1 -6.97807 -15.9448 -13.2288 -6.97807 -15.9448 -13.2288
4680 1 -4.29157 -15.6056 -12.8433 -4.29157 18.4081 -12.8433
3417 1 -5.02675 -16.2101 -13.3707 -5.02675 -16.2101 20.643
10437 1 -1.90203 -0.89609 -0.411616 -1.90203 -0.89609 -0.411616
804 1 -3.37781 -16.2836 -13.8925 -3.37781 -16.2836 -13.8925
14552 1 -1.91615 -15.5926 -13.6593 -1.91615 18.4212 20.3544
634 1 -15.9679 -15.1269 -12.9306 18.0458 -15.1269 -12.9306
15682 1 -16.8281 -13.8572 -13.6746 17.1856 20.1565 20.3391
5832 1 -12.4487 -14.0591 -12.6781 -12.4487 19.9546 -12.6781
1193 1 -10.4379 -15.1392 -13.3042 -10.4379 -15.1392 -13.3042
2933 1 -11.2509 -14.2761 -12.4329 -11.2509 -14.2761 21.5808
6420 1 -9.07856 -15.3867 -14.6665 -9.07856 18.627 19.3472
5518 1 -7.84473 -14.8412 -13.0514 -7.84473 19.1725 -13.0514
15998 1 -6.76928 -14.7449 -13.9996 -6.76928 -14.7449 20.0142
12550 1 -5.64538 -14.2755 -13.1879 -5.64538 -14.2755 -13.1879
8838 1 -4.32883 -13.7372 -13.0814 -4.32883 -13.7372 -13.0814
6016 1 -2.82144 -14.6977 -13.1668 -2.82144 -14.6977 -13.1668
5413 1 -0.747693 -14.9411 -13.3442 -0.747693 19.0726 -13.3442
10276 1 -16.8092 -12.0111 -16.9105 17.2045 -12.0111 -16.9105
8192 1 -15.5087 -14.1853 -13.3276 -15.5087 19.8285 20.6861
7292 1 -14.0056 -14.0719 -0.363813 -14.0056 19.9418 -0.363813
411 1 -14.045 -14.2982 -12.8705 -14.045 -14.2982 -12.8705
921 1 -13.3173 -14.6728 -13.7431 -13.3173 -14.6728 -13.7431
1924 1 -13.763 -12.5173 -12.7589 -13.763 -12.5173 -12.7589
12886 1 -10.7355 -13.5335 -12.9798 -10.7355 20.4802 -12.9798
7688 1 -9.33078 -14.399 -13.7614 -9.33078 -14.399 20.2523
1663 1 -8.69827 -13.0651 -12.78 -8.69827 -13.0651 -12.78
82 1 -8.43349 -14.058 -12.6652 -8.43349 -14.058 -12.6652
5235 1 -7.82108 -14.3322 -14.1558 -7.82108 -14.3322 -14.1558
10853 1 -6.24123 -12.6016 -13.2338 -6.24123 -12.6016 -13.2338
11513 1 -3.16375 -13.6464 -12.8567 -3.16375 -13.6464 21.1571
8889 1 -1.92705 -14.0029 -13.8114 -1.92705 -14.0029 -13.8114
10628 1 -0.697356 -13.8467 -14.375 -0.697356 -13.8467 19.6387
1241 1 -0.53312 -12.133 -13.4773 -34.5468 -12.133 -13.4773
7695 1 -15.4034 -12.2968 -13.7848 -15.4034 21.717 20.2289
16266 1 -14.3681 -12.1446 -14.1517 19.6456 21.8691 -14.1517
256 1 -14.3613 -11.5864 -12.956 -14.3613 -11.5864 -12.956
6711 1 -11.4136 -12.0291 -13.9098 -11.4136 21.9847 20.1039
4246 1 -9.0752 -12.1617 -13.4426 -9.0752 21.852 -13.4426
3070 1 -7.94278 -12.9819 -13.6467 -7.94278 -12.9819 20.367
6512 1 -5.35194 -11.86 -14.3229 -5.35194 22.1537 19.6908
839 1 -4.33569 -12.1015 -13.68 -4.33569 -12.1015 -13.68
2217 1 -3.91141 -12.274 -12.2804 -3.91141 -12.274 21.7333
16370 1 -2.84454 -11.2181 -12.5784 -2.84454 22.7956 21.4353
13639 1 -2.42864 -12.5866 -13.218 -2.42864 21.4271 -13.218
1072 1 -12.4486 -0.578981 -16.6733 -12.4486 -0.578981 -16.6733
1883 1 -15.137 -10.522 -13.9101 -15.137 -10.522 -13.9101
8527 1 -13.0276 -11.3165 -12.8829 20.9861 -11.3165 -12.8829
10702 1 -11.2851 -10.7254 -12.913 -11.2851 -10.7254 21.1007
2569 1 -10.7598 -10.5318 -14.2327 -10.7598 -10.5318 19.781
3645 1 -7.21173 -11.7685 -13.0758 -7.21173 -11.7685 20.9379
5756 1 -6.00838 -10.905 -13.2862 -6.00838 23.1087 20.7275
1675 1 -4.50095 -10.9787 -13.0631 -4.50095 -10.9787 -13.0631
602 1 -4.68965 -9.53026 -13.675 -4.68965 -9.53026 -13.675
4665 1 -3.43971 -11.8102 -14.1374 -3.43971 22.2035 -14.1374
10240 1 -2.56634 -9.78038 -12.4525 -2.56634 -9.78038 -12.4525
3355 1 -0.362026 -10.9108 -13.8532 -0.362026 -10.9108 20.1605
9579 1 -1.27511 -11.5177 -12.8564 -1.27511 -11.5177 -12.8564
6853 1 -16.4745 -9.56819 -13.2587 -16.4745 24.4455 20.7551
4316 1 -15.2475 -9.31547 -13.0696 -15.2475 24.6982 -13.0696
13987 1 -13.5203 -8.60853 -14.213 20.4935 -8.60853 -14.213
5597 1 -13.0688 -9.36423 -13.49 -13.0688 24.6495 -13.49
1228 1 -11.2013 -9.33062 -12.9199 -11.2013 -9.33062 -12.9199
791 1 -10.0273 -9.23639 -13.0377 -10.0273 -9.23639 -13.0377
12785 1 -9.27493 -10.0983 -13.7702 -9.27493 -10.0983 -13.7702
15352 1 -8.27809 -10.7634 -13.4892 25.7356 -10.7634 20.5245
13170 1 -9.20698 -8.62949 -13.3479 -9.20698 25.3842 -13.3479
13515 1 -5.58003 -8.42351 -13.8607 28.4337 -8.42351 -13.8607
7878 1 -6.68231 -9.56907 -12.6294 -6.68231 24.4446 21.3843
6318 1 -3.78153 -9.86606 -12.645 -3.78153 -9.86606 21.3687
6427 1 -5.49761 -8.67365 -12.6268 -5.49761 25.3401 21.3869
1831 1 -3.29572 -10.4875 -14.4453 -3.29572 -10.4875 -14.4453
13435 1 -3.30951 -8.77198 -13.0058 -3.30951 25.2417 -13.0058
10615 1 -1.28846 -9.66853 -14.0952 -1.28846 -9.66853 19.9185
2121 1 -1.86745 -8.60193 -13.2242 -1.86745 -8.60193 -13.2242
14547 1 -15.7059 -7.36245 -14.0237 18.3078 -7.36245 19.99
12175 1 -16.6023 -7.65869 -12.979 17.4114 -7.65869 21.0347
7783 1 -14.573 -8.15321 -14.1926 -14.573 25.8605 -14.1926
2381 1 -12.3044 -7.58115 -13.4422 -12.3044 -7.58115 20.5716
3748 1 -12.5432 -8.53802 -12.391 -12.5432 -8.53802 21.6227
845 1 -11.0283 -8.13262 -13.5299 -11.0283 -8.13262 -13.5299
11161 1 -10.0199 -8.09361 -12.4702 23.9938 -8.09361 21.5435
352 1 -10.0216 -7.30527 -13.9583 -10.0216 -7.30527 -13.9583
320 1 -9.0998 -8.22837 -14.6296 -9.0998 -8.22837 -14.6296
1012 1 -7.76598 -8.0499 -13.5554 -7.76598 -8.0499 -13.5554
7035 1 -6.77066 -6.99036 -12.9406 -6.77066 27.0234 21.0731
9916 1 -4.00069 -7.1746 -11.9446 -4.00069 -7.1746 -11.9446
350 1 -3.70205 -7.63914 -13.9619 -3.70205 -7.63914 -13.9619
12283 1 -0.309215 -8.46835 -13.1394 -0.309215 -8.46835 20.8743
11632 1 -4.91867 -13.3606 -0.0075489 -4.91867 20.6531 -0.0075489
11824 1 -15.5484 -6.41389 -13.2119 18.4654 -6.41389 20.8018
12818 1 -14.3203 -7.30153 -13.2863 19.6934 -7.30153 -13.2863
6725 1 -13.3518 -6.07139 -14.4623 -13.3518 -6.07139 19.5514
1511 1 -13.3531 -6.53407 -13.3035 -13.3531 -6.53407 -13.3035
4753 1 -11.7006 -5.70503 -13.22 -11.7006 -5.70503 -13.22
9089 1 -10.906 -7.35055 -12.5355 -10.906 -7.35055 -12.5355
12483 1 -9.83781 -6.35418 -13.1046 -9.83781 -6.35418 -13.1046
13013 1 -7.74107 -6.4942 -13.8506 -7.74107 27.5195 -13.8506
13514 1 -5.83873 -6.3891 -13.5203 -5.83873 -6.3891 -13.5203
452 1 -5.14702 -7.33807 -14.1517 -5.14702 -7.33807 -14.1517
2075 1 -4.33504 -6.53241 -13.9985 -4.33504 -6.53241 20.0152
11915 1 -3.29692 -6.36261 -13.4907 -3.29692 -6.36261 20.523
5203 1 -5.05506 -5.23553 -13.8115 -39.0688 -5.23553 -13.8115
9790 1 -1.16024 -6.28699 -14.3052 -1.16024 -6.28699 -14.3052
14414 1 -2.73121 -5.51142 -12.9751 -2.73121 -5.51142 21.0386
9990 1 -1.56041 -7.29301 -13.1635 -1.56041 -7.29301 -13.1635
15704 1 -1.17362 -0.0519932 -16.8799 -1.17362 -0.0519932 17.1338
468 1 -16.1854 -5.68334 -14.0115 -16.1854 -5.68334 -14.0115
15775 1 -15.8209 -3.54358 -13.9179 18.1928 -3.54358 20.0958
1 1 -14.7906 -5.14868 -13.092 -14.7906 -5.14868 -13.092
10268 1 -12.4924 -4.76524 -14.2598 21.5213 -4.76524 -14.2598
5221 1 -10.9265 -5.01646 -14.1809 -10.9265 28.9973 19.8329
11830 1 -10.1664 -4.89198 -12.8082 23.8473 -4.89198 21.2056
2498 1 -11.3477 -4.48568 -12.5549 -11.3477 -4.48568 -12.5549
9330 1 -8.93502 -4.60032 -13.2912 25.0787 -4.60032 -13.2912
8225 1 -6.8073 -4.72362 -12.6107 -6.8073 -4.72362 -12.6107
1741 1 -6.10644 -5.14901 -13.2565 -6.10644 -39.1627 -13.2565
3114 1 -3.22052 -4.64371 -13.4605 -3.22052 -4.64371 -13.4605
15544 1 -0.994473 -4.55449 -14.2752 -0.994473 -4.55449 19.7385
9666 1 -14.3715 -4.23371 -13.619 19.6422 -4.23371 -13.619
5332 1 -12.7914 -3.53274 -14.308 -12.7914 -3.53274 19.7057
5137 1 -13.1657 -3.88739 -13.2708 -13.1657 -3.88739 -13.2708
1527 1 -12.1527 -3.40559 -12.9219 -12.1527 -3.40559 -12.9219
4849 1 -9.37771 -3.17643 -14.0493 -9.37771 30.8373 19.9644
2727 1 -10.7899 -2.85758 -12.4784 -10.7899 -2.85758 -12.4784
3855 1 -8.16292 -2.96418 -13.8472 -8.16292 -2.96418 20.1665
10130 1 -7.79867 -3.99441 -13.2472 26.215 -3.99441 -13.2472
5974 1 -6.30262 -2.94191 -14.0781 -6.30262 -2.94191 -14.0781
1878 1 -6.47193 -3.25934 -12.8185 -6.47193 -3.25934 -12.8185
4263 1 -5.53616 -4.02604 -13.5678 -5.53616 -4.02604 -13.5678
4386 1 -2.62731 -3.64067 -13.9625 -2.62731 -3.64067 -13.9625
838 1 -4.21445 -3.05478 -13.8005 -4.21445 -3.05478 -13.8005
7710 1 -1.32757 -3.83519 -12.9119 -1.32757 -3.83519 21.1018
5317 1 -2.42981 -2.78665 -12.299 -2.42981 -2.78665 -12.299
5230 1 -0.50397 -3.6093 -12.1519 -0.50397 -3.6093 -12.1519
5076 1 -16.2144 -2.45029 -13.3324 -16.2144 31.5634 -13.3324
3574 1 -14.8493 -2.39115 -13.6199 -14.8493 -2.39115 20.3938
8736 1 -13.4432 -2.16288 -13.5333 20.5706 -2.16288 -13.5333
1336 1 -12.3058 -2.40428 -14.4471 -12.3058 -2.40428 -14.4471
13232 1 -11.167 -3.3894 -13.5623 22.8467 -3.3894 -13.5623
14073 1 -11.0374 -1.74786 -12.8313 -11.0374 -1.74786 -12.8313
3805 1 -9.58473 -2.06833 -13.874 -9.58473 -2.06833 20.1398
13491 1 -9.0048 -2.27724 -12.7554 25.0089 31.7365 -12.7554
5049 1 -7.58932 -2.3101 -13.0753 -7.58932 -2.3101 -13.0753
9206 1 -6.27849 -1.81582 -13.1496 -6.27849 -1.81582 -13.1496
8063 1 -4.76996 -1.88232 -13.7682 -4.76996 -1.88232 20.2455
1679 1 -3.25405 -2.39838 -13.269 -3.25405 -2.39838 -13.269
2003 1 -1.19447 -1.51542 -11.977 -35.2082 -1.51542 -11.977