ITEM: TIMESTEP
6000
ITEM: NUMBER OF ATOMS
16384
ITEM: BOX BOUNDS pp pp pp
-1.7006855707231768e+01 1.7006855707231768e+01
-1.7006855707231768e+01 1.7006855707231768e+01
-1.7006855707231768e+01 1.7006855707231768e+01
ITEM: ATOMS id type x y z xu yu zu
1480 1 -9.52793 -0.43833 -9.33049 -9.52793 -0.43833 -9.33049
5012 1 -16.5434 -4.11508 -1.23898 -16.5434 -4.11508 -1.23898
1216 1 -4.81901 -0.0751952 -8.49033 -4.81901 -0.0751952 -8.49033
5786 1 -13.8683 -15.7019 -15.7398 -13.8683 18.3118 -15.7398
14994 1 -12.8728 -15.5581 -14.7719 21.1409 18.4557 19.2418
11108 1 -2.03828 -16.7384 -6.16331 -2.03828 -16.7384 27.8504
3899 1 -7.31932 -15.9266 -16.0253 -7.31932 -15.9266 17.9885
14307 1 -5.58931 -15.7083 -15.3758 28.4244 18.3054 -15.3758
7428 1 -6.09888 -15.6675 -16.4238 -6.09888 18.3462 17.5899
13961 1 -4.34978 -16.7681 -16.4805 -4.34978 17.2456 -16.4805
2039 1 -0.559227 -5.92254 -0.138738 -0.559227 -5.92254 -0.138738
15814 1 -4.12221 -15.3662 -15.5644 -4.12221 18.6475 18.4493
10605 1 -16.6555 -5.70485 -1.10225 17.3582 -5.70485 -1.10225
10502 1 -0.680748 -16.5603 -15.59 33.333 -16.5603 18.4238
10116 1 -4.01516 -16.3686 -0.2081 29.9986 -16.3686 -0.2081
5989 1 -15.2219 -15.2149 -16.606 -15.2219 18.7989 -16.606
6866 1 -12.0672 -14.7295 -16.3366 -12.0672 19.2843 17.6771
16358 1 -8.86264 -0.29076 -15.9572 25.1511 -0.29076 18.0565
4484 1 -10.4144 -15.5068 -16.131 -10.4144 18.5069 -16.131
4829 1 -11.4459 -15.7992 -15.4206 -11.4459 18.2145 -15.4206
13995 1 -9.12564 -13.4464 -16.0316 -9.12564 20.5673 -16.0316
4718 1 -7.04946 -14.9387 -15.8005 -7.04946 -14.9387 -15.8005
12779 1 -8.54084 -16.3713 -2.12702 25.4729 17.6424 -2.12702
13450 1 -4.32136 -0.491045 -3.92376 -4.32136 -0.491045 -3.92376
3934 1 -3.94525 -13.8274 -16.2747 -3.94525 -13.8274 17.739
8332 1 -2.33462 -13.5785 -16.9078 -2.33462 -13.5785 -16.9078
10478 1 -1.76964 -15.7774 -15.9332 -1.76964 -15.7774 18.0805
10660 1 -0.972193 -2.55242 -0.637538 -0.972193 -2.55242 -0.637538
8644 1 -10.752 -0.150825 -10.4767 23.2617 -0.150825 -10.4767
15344 1 -15.794 -14.156 -15.7108 18.2197 19.8577 18.3029
8453 1 -15.0551 -13.6463 -16.4364 18.9586 -13.6463 -16.4364
2114 1 -13.2254 -13.9259 -15.7587 -13.2254 -13.9259 18.255
3531 1 -11.3689 -13.1582 -16.0716 -11.3689 -13.1582 17.9421
1281 1 -9.45416 -12.2782 -16.0837 -9.45416 -12.2782 -16.0837
10862 1 -10.2832 -12.7542 -15.4021 23.7305 -12.7542 18.6116
15533 1 -8.24997 -13.5544 -16.6822 -8.24997 -13.5544 -16.6822
1048 1 -5.95876 -13.4759 -16.0622 -5.95876 -13.4759 -16.0622
11234 1 -4.38559 -12.9692 -15.5141 -4.38559 -12.9692 18.4996
1795 1 -2.78119 -12.6379 -16.6173 -2.78119 -12.6379 -16.6173
989 1 -1.74456 -12.2113 -16.9455 -1.74456 -12.2113 -16.9455
5707 1 -1.61708 -14.765 -16.7252 -1.61708 19.2487 -16.7252
1065 1 -1.36896 -13.3244 -15.618 -1.36896 -13.3244 -15.618
8635 1 -16.6512 -10.5841 -16.4265 17.3625 -10.5841 -16.4265
228 1 -15.8243 -12.0202 -16.0489 -15.8243 -12.0202 -16.0489
2449 1 -8.73504 -11.5303 -16.6101 -8.73504 -11.5303 17.4036
11940 1 -12.8108 -12.9322 -15.2262 21.2029 -12.9322 18.7875
4146 1 -12.397 -11.294 -16.5873 -12.397 22.7197 -16.5873
2414 1 -1.4521 -0.10018 -13.7167 -1.4521 -0.10018 20.297
12208 1 -7.2696 -11.4124 -15.5412 26.7441 -11.4124 18.4725
3906 1 -6.27932 -12.5431 -15.5819 -6.27932 -12.5431 18.4318
14247 1 -12.7886 -13.1115 -16.8669 -12.7886 20.9022 -16.8669
11401 1 -4.92286 -11.9749 -15.5805 -4.92286 -11.9749 18.4332
13970 1 -4.16895 -11.7523 -16.9533 -4.16895 -11.7523 -16.9533
618 1 -3.30782 -11.7828 -15.7967 -3.30782 -11.7828 -15.7967
2128 1 -2.32251 -11.2651 -15.8226 -2.32251 -11.2651 18.1912
6397 1 -0.672198 -11.8733 -15.8942 -0.672198 22.1404 18.1195
730 1 -14.7212 -11.6141 -16.8655 -14.7212 -11.6141 -16.8655
888 1 -14.3243 -12.121 -15.3724 -14.3243 -12.121 -15.3724
12058 1 -14.4048 -10.4471 -15.8931 19.6089 -10.4471 18.1206
9359 1 -13.5701 -11.4806 -16.4211 20.4436 -11.4806 -16.4211
2868 1 -13.2891 -10.6957 -15.2765 -13.2891 -10.6957 18.7373
8937 1 -10.804 -11.1987 -15.5853 23.2097 -11.1987 -15.5853
6129 1 -7.26425 -9.81752 -16.0992 -7.26425 -9.81752 17.9145
10664 1 -5.87583 -11.3295 -15.9984 28.1379 -11.3295 18.0153
271 1 -4.54156 -10.8093 -15.9516 -4.54156 -10.8093 -15.9516
9347 1 -3.02993 -10.7929 -16.9492 30.9838 -10.7929 -16.9492
14173 1 -5.02945 -0.889154 -4.84637 28.9843 -0.889154 -4.84637
3816 1 -2.34783 -9.72213 -15.3836 -2.34783 -9.72213 18.6301
1348 1 -16.2225 -9.10335 -15.5419 -16.2225 -9.10335 -15.5419
1378 1 -15.3404 -9.31052 -16.8187 -15.3404 -9.31052 -16.8187
13199 1 -13.6012 -9.65447 -14.9968 -13.6012 24.3592 -14.9968
8583 1 -12.4519 -9.61991 -16.5744 -12.4519 -9.61991 -16.5744
13276 1 -16.9621 -7.34247 -8.78473 17.0516 26.6712 -8.78473
4995 1 -0.138763 -1.81845 -6.74195 -0.138763 -1.81845 -6.74195
4269 1 -10.3473 -8.97361 -15.9362 -10.3473 -8.97361 -15.9362
13612 1 -8.31053 -8.88675 -16.4737 25.7032 -8.88675 -16.4737
10437 1 -1.31216 -1.14468 -0.145642 -1.31216 -1.14468 -0.145642
2490 1 -6.4133 -9.51566 -14.4645 -6.4133 -9.51566 19.5493
2063 1 -5.77079 -9.25724 -16.3093 -5.77079 -9.25724 17.7044
2393 1 -2.59725 -9.35581 -16.5351 -2.59725 -9.35581 -16.5351
3995 1 -1.51184 -8.71446 -16.2836 -1.51184 -8.71446 17.7301
11063 1 -1.5533 -10.2248 -16.2031 -1.5533 -10.2248 17.8106
11361 1 -4.46215 -1.30204 -1.48241 -4.46215 -1.30204 -1.48241
3082 1 -0.213965 -9.00963 -16.2927 -0.213965 -9.00963 17.721
15778 1 -14.3057 -7.47775 -16.0727 19.708 26.536 17.941
5723 1 -15.9792 -7.97246 -16.9305 -15.9792 26.0413 -16.9305
4148 1 -16.7271 -0.283284 -12.3539 -16.7271 -0.283284 -12.3539
702 1 -11.8673 -7.67528 -16.0575 -11.8673 -7.67528 -16.0575
15414 1 -10.2085 -7.67212 -16.8896 23.8052 -7.67212 17.1241
2981 1 -2.20517 -5.29257 -16.9435 -2.20517 -5.29257 17.0702
1321 1 -6.17484 -8.71099 -15.3677 -6.17484 -8.71099 -15.3677
1666 1 -4.73476 -8.91197 -15.7655 -4.73476 -8.91197 -15.7655
7029 1 -5.83994 -7.76972 -15.3636 -5.83994 26.244 18.6501
883 1 -16.8791 -0.387114 -8.81396 -16.8791 -0.387114 -8.81396
7593 1 -0.431109 -16.9346 -6.25651 -0.431109 17.0792 -6.25651
15421 1 -1.03537 -6.98057 -15.868 -1.03537 27.0331 -15.868
4310 1 -15.5268 -6.76945 -16.6668 -15.5268 27.2443 -16.6668
1867 1 -9.96393 -4.91925 -16.6358 -9.96393 -4.91925 -16.6358
12128 1 -15.3541 -6.24474 -15.4913 -15.3541 -6.24474 -15.4913
9267 1 -14.1458 -6.38928 -16.8158 19.8679 -6.38928 -16.8158
8388 1 -11.8504 -5.42499 -16.9115 -11.8504 -5.42499 -16.9115
704 1 -10.5015 -6.47602 -16.7545 -10.5015 -6.47602 -16.7545
14117 1 -8.55309 -7.75393 -15.8086 -8.55309 -7.75393 -15.8086
12459 1 -7.6462 -6.48144 -16.3412 -7.6462 27.5323 -16.3412
12043 1 -5.77067 -6.50443 -15.1817 -5.77067 -6.50443 18.832
3547 1 -6.01004 -7.49472 -16.7759 -6.01004 -7.49472 17.2378
15602 1 -7.69348 -16.6304 -9.93006 26.3202 17.3833 24.0837
7837 1 -3.4238 -5.68917 -15.6708 -3.4238 -5.68917 18.3429
2825 1 -2.21569 -14.6145 -0.302062 -2.21569 -14.6145 -0.302062
15213 1 -2.94563 -6.40875 -16.317 -2.94563 27.605 17.6967
1707 1 -0.474558 -5.36833 -15.8189 -0.474558 -5.36833 -15.8189
2254 1 -16.4188 -4.43586 -15.7784 -16.4188 -4.43586 18.2353
528 1 -16.1717 -5.71715 -16.5539 -16.1717 -5.71715 -16.5539
13964 1 -12.9663 -5.87062 -16.9546 -12.9663 -5.87062 -16.9546
5891 1 -14.7713 -4.83638 -16.335 -14.7713 -4.83638 -16.335
570 1 -11.7925 -4.56859 -15.6092 -11.7925 -4.56859 -15.6092
84 1 -11.2283 -4.5137 -16.8069 -11.2283 -4.5137 -16.8069
11930 1 -10.8468 -5.62908 -15.887 23.1669 -5.62908 18.1267
14187 1 -8.78535 -4.96251 -16.5656 25.2284 -4.96251 -16.5656
122 1 -6.705 -4.69754 -14.7725 -6.705 -4.69754 -14.7725
11415 1 -7.3177 -5.05628 -16.3925 26.696 -5.05628 17.6212
1020 1 -6.29617 -5.16573 -16.4893 -6.29617 -5.16573 -16.4893
2242 1 -4.67924 -4.64835 -15.4984 -4.67924 -4.64835 18.5154
1606 1 -1.76764 -4.23625 -15.6576 -1.76764 -4.23625 -15.6576
12429 1 -1.04035 -4.94427 -16.7456 -1.04035 29.0694 -16.7456
4438 1 -11.5601 -16.7836 -13.8741 -11.5601 17.2301 -13.8741
4519 1 -6.64516 -16.848 -14.083 -6.64516 17.1657 -14.083
865 1 -14.2386 -3.57804 -15.5865 -14.2386 -3.57804 -15.5865
2288 1 -13.4395 -4.44023 -16.7168 -13.4395 -4.44023 17.2969
2906 1 -11.4051 -3.26747 -16.5489 -11.4051 -3.26747 17.4648
15042 1 -9.80196 -4.33082 -15.5248 24.2117 -4.33082 18.4889
10875 1 -9.45282 -3.24539 -16.8506 24.5609 -3.24539 17.1632
5081 1 -7.96583 -3.58853 -16.9113 -7.96583 -3.58853 -16.9113
762 1 -5.88405 -3.73894 -16.2027 -5.88405 -3.73894 -16.2027
9145 1 -3.8838 -3.9124 -16.0397 -3.8838 -3.9124 -16.0397
8884 1 -0.232015 -13.3774 -11.1099 -0.232015 -13.3774 -11.1099
2026 1 -4.33596 -2.83871 -16.3487 -4.33596 -36.8524 -16.3487
11153 1 -10.3374 -2.49819 -16.8656 23.6763 -2.49819 17.1481
11231 1 -2.79421 -3.38394 -15.2202 -2.79421 -3.38394 18.7935
9082 1 -1.71197 -3.12637 -16.6017 -1.71197 -3.12637 -16.6017
2252 1 -0.151303 -3.68029 -16.2338 -0.151303 -3.68029 17.7799
1383 1 -15.8346 -2.59302 -16.9063 -15.8346 -2.59302 -16.9063
775 1 -10.1803 -16.8405 -7.04546 -10.1803 -16.8405 -7.04546
5131 1 -12.7096 -3.61577 -15.2325 -12.7096 -3.61577 -15.2325
10814 1 -12.4948 -2.33215 -16.1068 21.5189 -2.33215 -16.1068
7510 1 -6.1671 -0.421155 -14.0727 -6.1671 -0.421155 19.9411
5665 1 -9.54322 -2.09646 -16.2071 -9.54322 -2.09646 -16.2071
3495 1 -9.33515 -1.2586 -15.2051 -9.33515 -1.2586 18.8086
1487 1 -8.42808 -2.48863 -16.768 -8.42808 -2.48863 -16.768
12090 1 -5.94592 -1.68798 -14.7593 28.0678 -1.68798 19.2544
8459 1 -6.46405 -2.72515 -16.5367 -6.46405 -2.72515 -16.5367
7492 1 -4.68361 -0.948501 -16.3614 -4.68361 -0.948501 17.6523
3758 1 -12.4919 -16.8843 -3.51741 -12.4919 -16.8843 -3.51741
10407 1 -2.82228 -2.56074 -15.998 -2.82228 -2.56074 -15.998
12024 1 -2.44123 -2.30545 -14.3422 -2.44123 -2.30545 19.6715
953 1 -0.751954 -1.64033 -16.3448 -0.751954 -1.64033 -16.3448
5315 1 -14.6983 -0.297818 -15.8578 -14.6983 -0.297818 -15.8578
11319 1 -13.445 -10.3081 -16.6988 20.5688 -10.3081 17.3149
3051 1 -13.5658 -1.43041 -16.0738 -13.5658 -1.43041 17.9399
8427 1 -11.8591 -0.456447 -15.2323 22.1546 -0.456447 -15.2323
2291 1 -10.7471 -0.256015 -16.6229 -10.7471 -0.256015 17.3908
11923 1 -0.939793 -8.41519 -15.2477 -0.939793 -8.41519 -15.2477
7687 1 -0.0609643 -3.33301 -3.78384 -0.0609643 -3.33301 -3.78384
3438 1 -1.85272 -6.97194 -16.9372 -1.85272 -6.97194 17.0765
6799 1 -6.37449 -0.783691 -16.4479 -6.37449 -0.783691 17.5658
8096 1 -0.066166 -16.9911 -0.459024 -0.066166 -16.9911 -0.459024
4790 1 -2.68904 -0.423356 -16.1197 -2.68904 -0.423356 -16.1197
3835 1 -3.93317 -0.30463 -15.6662 -3.93317 -0.30463 18.3475
12294 1 -1.66915 -0.446469 -15.6861 -1.66915 -0.446469 18.3276
9314 1 -2.8404 -4.37955 -16.1757 -2.8404 -4.37955 -16.1757
12326 1 -15.7344 -16.5481 -14.6294 18.2794 -16.5481 19.3843
6256 1 -15.0379 -16.2973 -15.7487 -15.0379 17.7165 18.265
6369 1 -12.0831 -16.7235 -15.0959 -12.0831 17.2902 18.9178
3412 1 -0.0297599 -8.8313 -0.606343 -0.0297599 -8.8313 -0.606343
3725 1 -10.8038 -16.8593 -15.0385 -10.8038 -16.8593 18.9752
15997 1 -9.0313 -15.7375 -15.5971 -9.0313 18.2762 18.4166
7613 1 -9.43652 -16.6657 -14.0727 -9.43652 17.348 19.9411
1970 1 -6.86741 -15.5745 -14.7805 -6.86741 -15.5745 -14.7805
2298 1 -7.84101 -15.9583 -14.5771 -7.84101 -15.9583 19.4366
910 1 -5.63393 -14.4836 -16.084 -5.63393 -14.4836 -16.084
4680 1 -4.49208 -15.7892 -13.01 -4.49208 18.2245 -13.01
3418 1 -12.8315 -15.927 -16.549 -12.8315 -15.927 17.4647
15413 1 -16.9687 -15.505 -0.287337 17.045 18.5087 33.7264
804 1 -2.76622 -16.2384 -14.132 -2.76622 -16.2384 -14.132
1229 1 -0.376709 -16.3662 -14.2295 -0.376709 -16.3662 -14.2295
7981 1 -14.7082 -14.8854 -15.6233 -14.7082 19.1283 18.3904
8786 1 -14.904 -15.6657 -14.0427 19.1097 -15.6657 -14.0427
6463 1 -11.7476 -13.9993 -15.1487 -11.7476 20.0144 18.865
9994 1 -12.2337 -14.6569 -14.3629 21.78 -14.6569 -14.3629
2162 1 -9.12971 -14.623 -16.7247 -9.12971 -14.623 17.289
7751 1 -10.6319 -15.8902 -14.1275 -10.6319 18.1235 19.8862
9102 1 -8.28759 -15.0345 -15.3341 -8.28759 -15.0345 -15.3341
10048 1 -6.68268 -14.192 -14.4764 -6.68268 -14.192 -14.4764
12118 1 -5.14659 -15.1091 -14.3531 -5.14659 -15.1091 -14.3531
8838 1 -3.88841 -15.0292 -14.1591 -3.88841 -15.0292 -14.1591
5291 1 -3.68206 -14.5517 -15.172 -3.68206 19.462 -15.172
11359 1 -2.23885 -14.7948 -14.4592 -2.23885 -14.7948 19.5545
10788 1 -2.27095 -14.1545 -15.5868 31.7428 -14.1545 18.427
10084 1 -0.0874505 -15.3525 -15.7009 -0.0874505 -15.3525 -15.7009
9239 1 -16.3287 -13.1395 -14.1525 17.685 20.8742 -14.1525
4014 1 -16.3076 -16.7699 -16.8236 -16.3076 -16.7699 17.1901
7800 1 -14.9111 -14.1485 -14.6264 -14.9111 19.8652 19.3873
2238 1 -11.9669 -13.2705 -14.2677 -11.9669 -13.2705 19.746
14619 1 -10.999 -13.7779 -14.2329 23.0147 20.2358 -14.2329
12676 1 -10.7976 -14.4819 -15.3583 23.2161 19.5318 -15.3583
12072 1 -9.97862 -13.255 -14.1661 24.0351 -13.255 19.8476
7734 1 -9.65805 -14.5461 -15.2591 -9.65805 19.4676 18.7546
3745 1 -8.87321 -13.3542 -14.7624 -8.87321 -13.3542 19.2513
5482 1 -7.49872 -14.0699 -15.3663 -7.49872 19.9438 -15.3663
312 1 -7.62616 -12.5809 -15.4954 -7.62616 -12.5809 18.5183
12295 1 -5.41548 -13.5082 -14.4608 -5.41548 -13.5082 19.5529
839 1 -4.02882 -12.7397 -14.0989 -4.02882 -12.7397 -14.0989
7564 1 -2.56912 -12.9164 -15.4773 -2.56912 21.0973 18.5364
254 1 -0.634821 -14.1431 -15.6769 -0.634821 -14.1431 -15.6769
1603 1 -14.2107 -13.1534 -14.6011 -14.2107 -13.1534 -14.6011
736 1 -12.6642 -11.8003 -14.4472 -12.6642 -11.8003 -14.4472
4814 1 -11.2985 -12.2033 -15.3206 -11.2985 21.8104 -15.3206
11950 1 -10.3242 -11.9416 -14.205 23.6895 -11.9416 19.8087
8072 1 -9.68714 -10.9176 -15.5548 -9.68714 23.0961 18.4589
4030 1 -6.74092 -13.0326 -14.4823 -6.74092 -13.0326 19.5314
13343 1 -6.14634 -11.9353 -14.5056 -6.14634 22.0784 -14.5056
8214 1 -4.53027 -13.2324 -12.5529 -4.53027 20.7813 21.4608
516 1 -1.8737 -11.4795 -14.2662 -1.8737 -11.4795 -14.2662
10844 1 -1.38199 -12.5305 -14.5568 -1.38199 -12.5305 19.457
4276 1 -15.4612 -10.736 -16.1593 -15.4612 23.2777 -16.1593
2939 1 -15.3704 -16.9004 -13.4229 -15.3704 -16.9004 20.5908
948 1 -8.56984 -7.14188 -16.8578 -8.56984 -7.14188 -16.8578
10243 1 -14.7583 -9.47313 -15.2637 -14.7583 -9.47313 -15.2637
8965 1 -11.7927 -10.6154 -15.5015 22.221 -10.6154 -15.5015
10702 1 -11.7576 -10.9722 -13.4212 -11.7576 -10.9722 20.5925
6141 1 -8.08383 -10.1641 -15.3888 -8.08383 23.8496 18.6249
9906 1 -9.8934 -9.90784 -14.9998 -9.8934 -9.90784 -14.9998
3604 1 -8.35643 -11.1724 -12.7148 -8.35643 -11.1724 21.2989
15352 1 -7.49673 -9.83554 -13.4614 26.517 -9.83554 20.5524
5116 1 -6.20029 -10.3755 -15.2877 -6.20029 -10.3755 -15.2877
602 1 -4.20826 -9.99271 -14.125 -4.20826 -9.99271 -14.125
10137 1 -4.2154 -11.1449 -14.7525 -4.2154 -11.1449 -14.7525
11018 1 -2.37913 -8.974 -14.4533 -2.37913 -8.974 19.5605
9355 1 -1.30014 -10.7699 -15.1461 -1.30014 -10.7699 18.8676
10585 1 -0.757206 -7.22525 -7.73503 -0.757206 -7.22525 -7.73503
11013 1 -14.1857 -8.50381 -15.5174 19.828 -8.50381 18.4963
1228 1 -11.5566 -9.02822 -13.723 -11.5566 -9.02822 -13.723
5086 1 -12.6042 -8.50054 -14.5913 -12.6042 25.5132 19.4224
2569 1 -10.5016 -10.3439 -13.7358 -10.5016 -10.3439 20.278
2243 1 -10.9635 -9.53237 -14.8136 -10.9635 -9.53237 19.2001
12785 1 -8.90779 -9.44128 -13.7037 -8.90779 -9.44128 -13.7037
8711 1 -7.72183 -9.17164 -14.7966 -7.72183 -9.17164 -14.7966
5756 1 -5.94615 -10.2894 -13.328 -5.94615 23.7243 20.6857
3125 1 -5.1471 -10.1041 -15.3095 -5.1471 -10.1041 18.7042
10790 1 -3.90786 -9.92809 -15.8504 -3.90786 -9.92809 18.1633
5446 1 -3.28001 -9.01957 -15.2909 -37.2937 -9.01957 -15.2909
1668 1 -8.19116 -7.26965 -0.0553309 -8.19116 -7.26965 -0.0553309
3951 1 -13.7301 -8.34264 -16.6275 -13.7301 -8.34264 17.3862
1145 1 -12.5591 -8.80774 -15.7832 -12.5591 -8.80774 -15.7832
2832 1 -12.6921 -6.89912 -15.9195 -12.6921 -6.89912 18.0942
12124 1 -11.7337 -7.98525 -15.0232 -11.7337 -7.98525 -15.0232
2163 1 -9.60155 -8.7259 -14.9271 -9.60155 -8.7259 19.0866
12672 1 -10.5674 -7.1456 -15.4699 23.4463 -7.1456 -15.4699
11112 1 -6.92869 -7.89267 -15.9686 -6.92869 -7.89267 18.0451
1012 1 -7.50538 -8.24706 -14.018 -7.50538 -8.24706 -14.018
13515 1 -5.87386 -8.64507 -14.0733 28.1399 -8.64507 -14.0733
461 1 -3.90664 -8.10605 -15.5636 -3.90664 -8.10605 -15.5636
9034 1 -2.89763 -6.81092 -15.2621 -2.89763 -6.81092 -15.2621
8421 1 -2.42226 -7.8293 -16.1438 -2.42226 -7.8293 -16.1438
5627 1 -15.9926 -7.85637 -15.6293 -15.9926 -7.85637 -15.6293
7143 1 -0.225542 -1.34363 -0.703163 -0.225542 -1.34363 -0.703163
224 1 -15.252 -5.92351 -14.1776 -15.252 -5.92351 -14.1776
7447 1 -13.4077 -7.13714 -14.7179 -13.4077 -7.13714 19.2958
8777 1 -12.4387 -5.98988 -14.2366 -12.4387 -5.98988 19.7771
3649 1 -14.0996 -6.26633 -15.6029 -14.0996 -6.26633 -15.6029
2478 1 -11.1211 -6.48491 -14.7458 -11.1211 -6.48491 19.2679
10453 1 -9.54095 -6.43538 -15.0007 24.4728 -6.43538 19.013
13013 1 -7.88802 -6.75648 -13.6149 -7.88802 27.2572 -13.6149
12771 1 -7.19902 -6.01733 -15.266 -7.19902 27.9964 -15.266
9939 1 -6.70598 -7.22519 -14.4439 -6.70598 -7.22519 -14.4439
8384 1 -4.46103 -6.42523 -14.8577 -4.46103 -6.42523 -14.8577
476 1 -4.94342 -6.89376 -16.0578 -4.94342 -6.89376 -16.0578
5143 1 -2.14255 -5.56251 -15.4033 -2.14255 -5.56251 -15.4033
4941 1 -1.65658 -6.65988 -15.146 -1.65658 27.3538 -15.146
9790 1 -1.49707 -5.78023 -13.9828 -1.49707 -5.78023 -13.9828
3546 1 -16.4375 -6.53562 -14.976 -16.4375 -6.53562 -14.976
13312 1 -15.5733 -4.9972 -15.3231 18.4404 -4.9972 -15.3231
5221 1 -11.1125 -4.71502 -14.0078 -11.1125 29.2987 20.0059
11190 1 -8.71017 -4.35223 -14.5321 -8.71017 -4.35223 19.4816
11751 1 -7.72695 -5.28478 -14.2527 26.2868 -5.28478 19.761
13514 1 -5.85043 -5.68486 -14.1181 -5.85043 -5.68486 -14.1181
5974 1 -6.24673 -3.26293 -14.0807 -6.24673 -3.26293 -14.0807
14071 1 -5.86444 -5.27521 -15.3091 -5.86444 28.7385 -15.3091
3114 1 -3.20796 -4.34782 -14.009 -3.20796 -4.34782 -14.009
1677 1 -2.22763 -4.64019 -14.4198 -2.22763 -4.64019 -14.4198
6601 1 -1.00005 -3.59523 -15.0225 -1.00005 -3.59523 18.9912
16163 1 -15.9196 -3.82342 -14.9961 18.0941 -3.82342 19.0176
12222 1 -7.19385 -1.65726 -16.3158 -7.19385 -1.65726 17.6979
13684 1 -14.8152 -2.26577 -16.0051 19.1985 -2.26577 -16.0051
9620 1 -14.5979 -3.12955 -14.7022 19.4158 -3.12955 -14.7022
11087 1 -13.1786 -4.9905 -15.6832 -13.1786 -4.9905 18.3305
7698 1 -10.9371 -3.73078 -14.871 -10.9371 -3.73078 19.1427
10909 1 -9.61843 -5.33043 -14.6112 24.3953 -5.33043 19.4025
1279 1 -10.0042 -2.70093 -15.2435 -10.0042 -2.70093 -15.2435
7782 1 -7.64517 -4.20321 -15.7935 -7.64517 -4.20321 18.2202
5220 1 -7.0414 -2.75094 -15.2818 -7.0414 -2.75094 -15.2818
5089 1 -3.67669 -3.02721 -14.9073 -3.67669 -3.02721 -14.9073
7710 1 -1.6426 -3.58269 -14.067 -1.6426 -3.58269 19.9467
9149 1 -16.06 -2.72702 -15.8126 17.9537 -2.72702 -15.8126
2366 1 -15.1399 -2.00131 -14.6864 -15.1399 -2.00131 19.3273
5076 1 -15.974 -2.20984 -13.8002 -15.974 31.8039 -13.8002
10583 1 -13.2838 -2.33503 -15.0529 20.7299 -2.33503 -15.0529
8736 1 -13.2133 -2.35228 -13.8039 20.8005 -2.35228 -13.8039
12986 1 -11.5818 -2.71334 -15.5037 -11.5818 -2.71334 -15.5037
13232 1 -11.2082 -2.5787 -14.0527 22.8055 -2.5787 -14.0527
9624 1 -8.89969 -3.6831 -15.5894 25.114 -3.6831 -15.5894
3147 1 -6.69121 -0.774722 -15.2099 -6.69121 -0.774722 18.8038
8871 1 -5.61231 -2.90256 -15.269 28.4014 -2.90256 -15.269
8515 1 -4.62607 -3.78354 -14.999 29.3876 -3.78354 -14.999
3286 1 -4.67594 -1.46592 -15.4384 -4.67594 -1.46592 -15.4384
3839 1 -2.73583 -1.60094 -16.6431 -2.73583 -1.60094 17.3706
1472 1 -1.11486 -2.34423 -13.9609 -1.11486 -2.34423 -13.9609
10391 1 -0.231278 -2.72982 -15.3205 -0.231278 -2.72982 -15.3205
12753 1 -15.7104 -0.951621 -15.5035 18.3033 -0.951621 -15.5035
15607 1 -13.8763 -3.24001 -16.6318 20.1374 -3.24001 17.3819
9079 1 -14.0863 -1.56941 -15.1175 19.9274 -1.56941 -15.1175
4879 1 -16.7701 -10.1035 -12.8513 -16.7701 23.9102 -12.8513
8612 1 -0.993765 -5.12526 -6.34916 -0.993765 -5.12526 -6.34916
11740 1 -13.0932 -1.10218 -14.0216 20.9205 -1.10218 19.9922
13268 1 -11.1777 -1.84046 -14.762 -11.1777 -1.84046 -14.762
6578 1 -10.5494 -1.46044 -16.0209 -10.5494 -1.46044 17.9928
7006 1 -10.259 -0.535886 -14.4309 -10.259 -0.535886 19.5828
2191 1 -7.89559 -0.628992 -14.6856 -7.89559 -0.628992 19.3281
14550 1 -7.78308 -1.62258 -15.3782 -7.78308 -1.62258 18.6355
14411 1 -8.87281 -0.824331 -14.2061 -8.87281 -0.824331 19.8076
9361 1 -5.00044 -0.285791 -14.5418 -5.00044 -0.285791 -14.5418
2369 1 -4.80234 -0.0172705 -9.97592 -4.80234 -34.031 -9.97592
9619 1 -3.7625 -6.07226 -16.8001 -3.7625 -6.07226 -16.8001
1047 1 -2.81607 -1.02127 -14.9157 -2.81607 -1.02127 -14.9157
2980 1 -1.6813 -2.0378 -15.3378 -1.6813 -2.0378 -15.3378
634 1 -15.7764 -15.5266 -13.5743 18.2373 -15.5266 -13.5743
4910 1 -16.7096 -13.0128 -15.5403 -16.7096 -13.0128 -15.5403
13193 1 -14.1334 -16.4804 -14.7654 19.8803 17.5333 -14.7654
2648 1 -14.1699 -16.6999 -13.1477 -14.1699 -16.6999 20.866
1248 1 -0.475366 -7.82122 -14.4091 -0.475366 -7.82122 -14.4091
1013 1 -10.8943 -16.1278 -12.804 -10.8943 -16.1278 -12.804
4627 1 -10.2275 -16.5274 -12.0875 -10.2275 17.4863 -12.0875
2690 1 -8.1858 -15.089 -11.6762 -8.1858 -15.089 22.3376
7965 1 -0.595767 -8.16198 -6.37389 -0.595767 25.8517 27.6398
9278 1 -6.77928 -16.0862 -13.1559 -6.77928 -16.0862 -13.1559
11513 1 -3.45145 -13.241 -13.4099 -3.45145 -13.241 20.6038
15998 1 -6.53567 -15.0202 -13.7881 -6.53567 -15.0202 20.2256
6016 1 -3.17266 -15.3623 -13.3218 -3.17266 -15.3623 -13.3218
9758 1 -0.372323 -0.939916 -13.0897 -0.372323 -0.939916 -13.0897
14089 1 -2.36381 -16.2292 -12.6526 -2.36381 17.7845 -12.6526
8445 1 -0.360591 -16.9598 -12.711 -0.360591 -16.9598 -12.711
4859 1 -16.7239 -16.3866 -14.1672 -16.7239 17.6271 -14.1672
4322 1 -15.9144 -14.6746 -12.1955 -15.9144 19.3391 -12.1955
10250 1 -16.0703 -15.3228 -15.0928 17.9434 -15.3228 -15.0928
1514 1 -14.6697 -15.3993 -12.6128 -14.6697 -15.3993 -12.6128
8535 1 -13.6014 -15.6422 -13.6918 -13.6014 -15.6422 -13.6918
1193 1 -10.135 -14.7747 -13.3554 -10.135 -14.7747 -13.3554
6420 1 -9.1844 -15.2075 -14.0127 -9.1844 18.8062 20.001
5518 1 -7.92453 -15.441 -13.0772 -7.92453 18.5727 -13.0772
1339 1 -6.89401 -14.9339 -12.463 -6.89401 -14.9339 -12.463
15558 1 -0.974744 -14.8147 -14.6885 -0.974744 19.199 19.3252
10628 1 -0.747636 -13.829 -14.069 -0.747636 -13.829 19.9447
8192 1 -15.6823 -13.7003 -13.5855 -15.6823 20.3134 20.4282
16266 1 -14.2957 -12.0914 -14.1149 19.718 21.9223 -14.1149
921 1 -13.6956 -14.0868 -13.7537 -13.6956 -14.0868 -13.7537
1414 1 -13.6255 -14.691 -14.9933 -13.6255 -14.691 -14.9933
2933 1 -11.331 -14.759 -12.9811 -11.331 -14.759 21.0327
12886 1 -10.6902 -13.1566 -12.9269 -10.6902 20.8571 -12.9269
7688 1 -9.42354 -14.0007 -13.5749 -9.42354 -14.0007 20.4388
4246 1 -8.99371 -11.9395 -13.4836 -8.99371 22.0742 -13.4836
82 1 -8.40021 -14.1544 -12.7855 -8.40021 -14.1544 -12.7855
3070 1 -7.27578 -12.7405 -13.5313 -7.27578 -12.7405 20.4824
5235 1 -8.01484 -13.7861 -14.0252 -8.01484 -13.7861 -14.0252
12550 1 -5.71225 -14.3251 -13.5496 -5.71225 -14.3251 -13.5496
10535 1 -6.40743 -13.5474 -12.7039 27.6063 -13.5474 -12.7039
321 1 -3.4191 -13.6216 -14.812 -3.4191 -13.6216 -14.812
5413 1 -1.28253 -14.3214 -13.0451 -1.28253 19.6923 -13.0451
8889 1 -2.07254 -13.737 -13.5821 -2.07254 -13.737 -13.5821
3103 1 -16.3173 -11.5882 -14.4745 -16.3173 -11.5882 19.5392
3885 1 -8.23584 -5.51045 -15.5373 -8.23584 -5.51045 18.4764
6711 1 -11.563 -11.9701 -14.1486 -11.563 22.0436 19.8651
3976 1 -11.6056 -12.492 -12.7493 -11.6056 -12.492 -12.7493
1663 1 -9.63653 -13.1274 -12.8072 -9.63653 -13.1274 -12.8072
7956 1 -10.4264 -12.4269 -11.5416 -10.4264 21.5868 -11.5416
8774 1 -8.57363 -12.243 -14.5546 -8.57363 -12.243 -14.5546
1798 1 -8.71779 -11.243 -15.2303 -8.71779 -11.243 -15.2303
4980 1 -7.74491 -11.8166 -14.2139 -7.74491 -11.8166 -14.2139
15986 1 -6.80476 -11.0008 -14.2826 -6.80476 -11.0008 19.7311
10853 1 -5.64651 -12.7572 -13.5837 -5.64651 -12.7572 -13.5837
12783 1 -3.17299 -12.4277 -14.5727 -3.17299 21.586 -14.5727
16370 1 -2.36271 -11.595 -12.8652 -2.36271 22.4187 21.1485
13639 1 -1.73265 -12.592 -13.4284 -1.73265 21.4218 -13.4284
4923 1 -16.1354 -10.2694 -14.853 -16.1354 23.7443 -14.853
305 1 -15.1951 -11.1675 -14.3836 -15.1951 -11.1675 -14.3836
10385 1 -13.748 -11.2323 -14.5471 20.2657 -11.2323 -14.5471
14050 1 -12.0767 -9.63255 -14.6233 21.937 24.3812 19.3904
8527 1 -12.9065 -10.8485 -13.0615 21.1073 -10.8485 -13.0615
150 1 -10.079 -12.042 -12.7847 -10.079 -12.042 -12.7847
8960 1 -9.8642 -10.4299 -12.5932 24.1495 -10.4299 -12.5932
3645 1 -7.1446 -11.1558 -13.0272 -7.1446 -11.1558 20.9865
6512 1 -5.20833 -11.5103 -13.924 -5.20833 22.5034 20.0897
12425 1 -5.65816 -10.0374 -12.09 -5.65816 23.9763 -12.09
4665 1 -3.23973 -11.2198 -13.7253 -3.23973 22.7939 -13.7253
10615 1 -1.89981 -9.90185 -13.8305 -1.89981 -9.90185 20.1832
743 1 -0.488774 -11.765 -14.581 -0.488774 -11.765 -14.581
12660 1 -15.0007 -0.0207379 -14.6103 19.013 -0.0207379 -14.6103
13987 1 -13.7926 -8.74257 -14.0742 20.2211 -8.74257 -14.0742
4316 1 -14.9857 -9.22456 -13.293 -14.9857 24.7892 -13.293
5597 1 -13.1225 -9.50995 -13.3656 -13.1225 24.5038 -13.3656
3263 1 -12.0384 -10.0849 -12.1963 -12.0384 -10.0849 21.8174
4413 1 -9.56303 -11.2704 -14.3835 -9.56303 22.7433 -14.3835
11161 1 -9.54473 -7.93036 -12.817 24.469 -7.93036 21.1967
13170 1 -8.34764 -8.76841 -13.195 -8.34764 25.2453 -13.195
6318 1 -4.90348 -9.71159 -12.9579 -4.90348 -9.71159 21.0558
6427 1 -5.42859 -8.77658 -13.0011 -5.42859 25.2371 21.0126
8542 1 -3.54973 -9.99474 -11.8258 -3.54973 -9.99474 -11.8258
1831 1 -3.04312 -9.58224 -13.8985 -3.04312 -9.58224 -13.8985
350 1 -2.60965 -7.88306 -14.1306 -2.60965 -7.88306 -14.1306
2121 1 -1.72129 -8.78178 -13.4446 -1.72129 -8.78178 -13.4446
3355 1 -0.536536 -10.4525 -13.8315 -0.536536 -10.4525 20.1822
8968 1 -0.0422648 -9.46823 -13.5938 -0.0422648 -9.46823 -13.5938
15695 1 -15.7112 -8.91955 -14.3556 18.3026 25.0942 19.6581
9400 1 -14.9273 -7.32432 -14.9327 19.0864 -7.32432 19.081
2381 1 -12.3777 -7.35982 -14.0043 -12.3777 -7.35982 20.0094
1710 1 -13.3639 -7.59003 -12.6511 -13.3639 -7.59003 -12.6511
791 1 -10.4523 -8.71775 -13.1789 -10.4523 -8.71775 -13.1789
1676 1 -11.1497 -7.90099 -12.381 -11.1497 -7.90099 -12.381
352 1 -9.80187 -7.15514 -13.7898 -9.80187 -7.15514 -13.7898
2022 1 -8.57666 -7.42428 -12.5111 -8.57666 -7.42428 -12.5111
320 1 -8.74467 -7.8741 -14.0234 -8.74467 -7.8741 -14.0234
7878 1 -6.61842 -9.36475 -13.3946 -6.61842 24.649 20.6191
452 1 -5.30613 -6.99341 -14.0972 -5.30613 -6.99341 -14.0972
2075 1 -4.70627 -6.81337 -12.8845 -4.70627 -6.81337 21.1293
9916 1 -3.4552 -7.53347 -12.8253 -3.4552 -7.53347 -12.8253
14547 1 -15.8271 -7.16522 -14.0801 18.1866 -7.16522 19.9337
12818 1 -14.164 -6.98971 -13.6435 19.8498 -6.98971 -13.6435
4753 1 -11.1329 -6.32201 -13.2184 -11.1329 -6.32201 -13.2184
845 1 -11.0699 -7.62839 -13.838 -11.0699 -7.62839 -13.838
9089 1 -10.3747 -6.92309 -12.7545 -10.3747 -6.92309 -12.7545
9539 1 -8.46885 -5.95005 -12.4294 -8.46885 -5.95005 -12.4294
7035 1 -6.80414 -7.19231 -12.8478 -6.80414 26.8214 21.166
11915 1 -3.34535 -6.6042 -14.1954 -3.34535 -6.6042 19.8183
5203 1 -4.16226 -5.69316 -13.3557 -38.176 -5.69316 -13.3557
14414 1 -2.44677 -5.88652 -13.6358 -2.44677 -5.88652 20.3779
9990 1 -1.86591 -6.96441 -13.6199 -1.86591 -6.96441 -13.6199
324 1 -9.57517 -6.33193 -16.2162 -9.57517 -6.33193 -16.2162
2256 1 -16.6464 -6.0544 -13.8919 -16.6464 -6.0544 20.1218
4904 1 -14.1124 -5.113 -14.3209 -14.1124 -5.113 -14.3209
468 1 -15.9277 -5.39178 -13.355 -15.9277 -5.39178 -13.355
6725 1 -13.3965 -6.34004 -14.1145 -13.3965 -6.34004 19.8992
1 1 -13.815 -5.5256 -12.8701 -13.815 -5.5256 -12.8701
10268 1 -12.7669 -4.95985 -13.9049 21.2468 -4.95985 -13.9049
11830 1 -9.96556 -4.80186 -13.2594 24.0481 -4.80186 20.7543
12483 1 -9.66528 -6.16542 -13.6327 -9.66528 -6.16542 -13.6327
622 1 -9.40279 -4.09988 -12.4391 -9.40279 -4.09988 -12.4391
8225 1 -7.21542 -5.03846 -13.1313 -7.21542 -5.03846 -13.1313
5087 1 -6.2722 -4.70198 -12.1596 -6.2722 -4.70198 -12.1596
8390 1 -4.90896 -5.07931 -12.5869 -4.90896 -5.07931 -12.5869
9544 1 -5.33647 -3.87222 -12.2134 -5.33647 -3.87222 -12.2134
11257 1 -4.22057 -4.14552 -12.651 -4.22057 -4.14552 21.3627
6507 1 -3.33284 -4.5925 -12.7361 -3.33284 29.4212 -12.7361
8322 1 -1.78186 -6.24327 -12.3375 -1.78186 -6.24327 -12.3375
15544 1 -0.706912 -4.93478 -14.0764 -0.706912 -4.93478 19.9373
15775 1 -15.9918 -4.3614 -13.8238 18.0219 -4.3614 20.19
9666 1 -14.735 -4.10751 -13.9777 19.2787 -4.10751 -13.9777
5332 1 -13.1636 -3.89544 -14.1017 -13.1636 -3.89544 19.912
8876 1 -13.8399 -2.35871 -12.7496 -13.8399 -2.35871 -12.7496
1527 1 -12.1283 -3.45423 -13.2138 -12.1283 -3.45423 -13.2138
4849 1 -10.3398 -3.32742 -13.9168 -10.3398 30.6863 20.0969
10506 1 -7.8355 -3.437 -14.661 26.1782 -3.437 19.3527
10130 1 -7.46994 -3.33395 -13.4369 26.5438 -3.33395 -13.4369
3078 1 -4.96043 -2.70453 -12.7164 -4.96043 -2.70453 -12.7164
1741 1 -5.65058 -4.54858 -13.4681 -5.65058 -38.5623 -13.4681
4386 1 -2.85388 -3.23175 -13.8092 -2.85388 -3.23175 -13.8092
10922 1 -7.20145 -12.2646 -16.7415 -7.20145 -12.2646 17.2722
5230 1 -0.678221 -3.64457 -13.0045 -0.678221 -3.64457 -13.0045
554 1 -14.9979 -3.73685 -12.5747 -14.9979 -3.73685 -12.5747
2184 1 -12.0146 -0.665987 -11.9342 -12.0146 -0.665987 -11.9342
7197 1 -14.8796 -2.20369 -12.5721 -14.8796 -2.20369 21.4416
3574 1 -14.6835 -2.23035 -13.7497 -14.6835 -2.23035 20.264
4403 1 -12.0531 -1.98332 -12.4868 -12.0531 -1.98332 -12.4868
14073 1 -10.6592 -1.75674 -12.9347 -10.6592 -1.75674 -12.9347
3855 1 -8.74497 -2.87491 -13.6905 -8.74497 -2.87491 20.3232
3805 1 -10.0625 -1.99016 -13.9408 -10.0625 -1.99016 20.0729
5352 1 -7.64675 -1.9387 -14.1813 -7.64675 -1.9387 -14.1813
1878 1 -6.21974 -3.09086 -12.804 -6.21974 -3.09086 -12.804
8063 1 -4.71636 -1.87481 -14.1338 -4.71636 -1.87481 19.8799
4263 1 -5.19567 -3.54145 -13.5529 -5.19567 -3.54145 -13.5529
13560 1 -3.52001 -1.95544 -14.6932 -3.52001 -1.95544 -14.6932
838 1 -3.8551 -2.85022 -13.1656 -3.8551 -2.85022 -13.1656
1679 1 -3.01712 -1.78336 -13.3282 -3.01712 -1.78336 -13.3282
9241 1 -0.0552909 -2.4665 -13.3146 -0.0552909 -2.4665 -13.3146
12173 1 -15.4646 -0.965283 -13.539 18.5491 -0.965283 20.4747
1254 1 -3.61151 -1.04619 -0.903344 -3.61151 -35.0599 -0.903344