ITEM: TIMESTEP
8000
ITEM: NUMBER OF ATOMS
16384
ITEM: BOX BOUNDS pp pp pp
-1.7006855707231768e+01 1.7006855707231768e+01
-1.7006855707231768e+01 1.7006855707231768e+01
-1.7006855707231768e+01 1.7006855707231768e+01
ITEM: ATOMS id type x y z xu yu zu
15495 1 -16.4175 -16.3786 -15.7854 17.5962 17.6351 18.2283
10801 1 -14.2163 -16.6427 -16.5382 19.7974 17.3711 17.4755
10387 1 -12.137 -16.0531 -15.7798 21.8767 -16.0531 18.2339
12676 1 -10.9705 -16.0865 -15.6549 23.0433 17.9272 -15.6549
15997 1 -9.64062 -16.0166 -15.9046 -9.64062 17.9971 18.1091
10093 1 -8.64115 -16.871 -16.1816 25.3726 -16.871 -16.1816
1461 1 -7.64714 -16.0481 -16.6362 -7.64714 -16.0481 -16.6362
15205 1 -5.959 -16.5601 -16.4362 28.0547 17.4536 17.5775
1970 1 -7.05729 -15.642 -15.7654 -7.05729 -15.642 -15.7654
15536 1 -2.95795 -16.4933 -16.604 -2.95795 17.5204 -16.604
14759 1 -1.99253 -16.9168 -15.7268 -1.99253 17.0969 18.2869
5809 1 -0.728193 -16.5883 -16.0738 -0.728193 17.4254 -16.0738
5037 1 -16.079 -14.9478 -16.4806 -16.079 19.0659 17.5331
3722 1 -14.5938 -14.4013 -16.5243 -14.5938 -14.4013 17.4894
13193 1 -13.4304 -15.4875 -15.6345 20.5833 18.5262 -15.6345
2114 1 -13.5543 -14.3748 -16.087 -13.5543 -14.3748 17.9267
14994 1 -11.9565 -14.4932 -15.869 22.0572 19.5205 18.1447
1327 1 -11.7491 -15.3211 -16.802 -11.7491 -15.3211 -16.802
7734 1 -10.5357 -14.461 -15.9444 -10.5357 19.5527 18.0693
6420 1 -8.65513 -15.1866 -15.628 -8.65513 18.8271 18.3857
2599 1 -9.07815 -15.322 -16.9218 -9.07815 -15.322 17.0919
3899 1 -6.3795 -14.7631 -16.7903 -6.3795 -14.7631 17.2234
12056 1 -5.01661 -14.6404 -16.3249 -5.01661 19.3733 17.6888
15558 1 -2.15552 -14.8308 -16.8144 -2.15552 19.1829 17.1994
15480 1 -0.441489 -15.349 -15.9066 -0.441489 18.6647 18.1071
4910 1 -15.7515 -13.4273 -16.4382 -15.7515 -13.4273 -16.4382
3103 1 -16.9381 -12.9423 -16.1497 -16.9381 -12.9423 17.8641
14247 1 -13.6062 -13.3109 -16.8911 -13.6062 20.7028 -16.8911
9503 1 -12.3161 -13.7933 -16.7994 21.6976 -13.7933 -16.7994
9102 1 -8.97855 -13.814 -16.1349 -8.97855 -13.814 -16.1349
1048 1 -6.2187 -13.6915 -16.1436 -6.2187 -13.6915 -16.1436
11401 1 -5.55804 -12.7609 -16.0795 -5.55804 -12.7609 17.9342
10478 1 -2.99297 -14.037 -16.5002 -2.99297 -14.037 17.5135
7864 1 -4.12832 -13.6041 -15.9753 -4.12832 20.4096 18.0384
9992 1 -0.644967 -12.8652 -16.7042 33.3687 -12.8652 -16.7042
2376 1 -0.294349 -14.1662 -16.4904 -0.294349 -14.1662 17.5233
1363 1 -16.0092 -11.4506 -16.4449 -16.0092 -11.4506 -16.4449
15178 1 -14.5776 -12.6696 -15.9913 19.4361 21.3441 18.0224
9359 1 -12.4094 -12.3665 -16.1855 21.6043 -12.3665 -16.1855
3531 1 -10.3017 -12.4245 -16.7406 -10.3017 -12.4245 17.2731
8774 1 -11.299 -12.6051 -15.801 -11.299 -12.6051 -15.801
5482 1 -9.30669 -12.4579 -16.1754 -9.30669 21.5558 -16.1754
10922 1 -8.25266 -12.1194 -16.8757 -8.25266 -12.1194 17.138
3906 1 -8.23495 -12.2235 -15.7188 -8.23495 -12.2235 18.2949
12680 1 -6.98469 -12.5095 -16.3802 -6.98469 21.5042 -16.3802
3934 1 -4.28782 -12.3766 -16.3418 -4.28782 -12.3766 17.672
618 1 -3.68991 -11.3927 -16.5307 -3.68991 -11.3927 -16.5307
5707 1 -2.74065 -12.5169 -16.4637 -2.74065 21.4968 -16.4637
989 1 -2.33403 -11.4359 -16.3659 -2.33403 -11.4359 -16.3659
6397 1 -1.55083 -12.6159 -15.9052 -1.55083 21.3979 18.1085
14991 1 -0.193178 -11.6899 -16.7607 -0.193178 -11.6899 17.253
888 1 -14.299 -10.9828 -16.3783 -14.299 -10.9828 -16.3783
11319 1 -12.3944 -10.2364 -16.1436 21.6193 -10.2364 17.8702
14050 1 -12.4462 -11.2477 -15.7566 21.5675 22.766 18.2571
4814 1 -11.2949 -11.1485 -16.6827 -11.2949 22.8652 -16.6827
1281 1 -10.2735 -10.9411 -15.8567 -10.2735 -10.9411 -15.8567
2449 1 -8.99144 -10.6693 -15.9606 -8.99144 -10.6693 18.0531
7432 1 -9.85571 -10.1021 -16.9691 -9.85571 23.9116 17.0446
13612 1 -7.53131 -9.93094 -16.4562 26.4824 -9.93094 -16.4562
6265 1 -7.35939 -11.072 -16.8983 -7.35939 22.9417 17.1154
271 1 -6.25601 -11.3074 -16.1271 -6.25601 -11.3074 -16.1271
11422 1 -5.8839 -9.93724 -16.754 28.1298 -9.93724 17.2597
130 1 -4.84099 -10.7895 -16.5236 -4.84099 -10.7895 -16.5236
11063 1 -2.89019 -10.4465 -16.537 -2.89019 -10.4465 17.4767
10952 1 -0.515466 -11.0717 -15.902 -0.515466 -11.0717 18.1117
557 1 -1.25559 -10.8426 -16.9967 -1.25559 -10.8426 -16.9967
4276 1 -16.2475 -9.90517 -15.655 -16.2475 24.1085 -15.655
12058 1 -14.2986 -9.76174 -16.2961 19.7151 -9.76174 17.7176
8938 1 -15.3542 -9.16193 -16.3319 18.6595 -9.16193 -16.3319
3951 1 -14.1889 -8.80942 -16.8187 -14.1889 -8.80942 17.195
1145 1 -11.9765 -9.15808 -15.6221 -11.9765 -9.15808 -15.6221
7013 1 -12.6518 -8.82771 -16.648 -12.6518 25.186 17.3657
12726 1 -11.2597 -9.58242 -16.8287 22.754 24.4313 -16.8287
8965 1 -9.5975 -8.71542 -16.3847 24.4162 -8.71542 -16.3847
948 1 -8.70559 -9.1226 -15.6788 -8.70559 -9.1226 -15.6788
6129 1 -5.94464 -9.10615 -15.858 -5.94464 -9.10615 18.1557
2063 1 -5.01392 -8.98826 -16.7012 -5.01392 -8.98826 17.3125
1464 1 -3.96153 -9.58573 -16.3523 -3.96153 -9.58573 -16.3523
8548 1 -1.47385 -9.8597 -16.5075 -1.47385 -9.8597 -16.5075
2393 1 -2.5467 -8.99915 -16.2661 -2.5467 -8.99915 -16.2661
3082 1 -0.0424269 -9.74343 -16.2295 -0.0424269 -9.74343 17.7842
1348 1 -16.463 -8.43089 -15.9665 -16.463 -8.43089 -15.9665
2256 1 -15.9046 -7.27061 -15.5931 -15.9046 -7.27061 18.4206
5379 1 -16.7756 -7.27514 -16.8261 -16.7756 26.7386 -16.8261
9400 1 -14.9068 -8.09926 -16.0127 19.1069 -8.09926 18.001
11013 1 -13.5268 -8.16114 -16.1175 20.4869 -8.16114 17.8962
11614 1 -14.1087 -7.49897 -16.996 19.905 -7.49897 17.0177
704 1 -11.6521 -7.1298 -16.3969 -11.6521 -7.1298 -16.3969
702 1 -11.0637 -8.23784 -16.1414 -11.0637 -8.23784 -16.1414
324 1 -9.81762 -7.31585 -16.033 -9.81762 -7.31585 -16.033
7263 1 -8.35361 -8.44863 -16.897 -8.35361 25.5651 17.1167
7029 1 -5.87286 -8.0676 -16.2835 -5.87286 25.9461 17.7302
10134 1 -7.07537 -7.75409 -15.9785 -7.07537 -7.75409 -15.9785
5446 1 -4.76055 -7.7382 -15.7666 -38.7743 -7.7382 -15.7666
16127 1 -4.45774 -7.88118 -16.8637 -4.45774 -7.88118 17.15
1666 1 -3.52583 -8.45963 -16.3075 -3.52583 -8.45963 -16.3075
15213 1 -2.33665 -7.73228 -16.2846 -2.33665 26.2814 17.7291
15421 1 -1.10292 -7.81992 -16.0169 -1.10292 26.1938 -16.0169
456 1 -0.331759 -7.60014 -16.9943 -0.331759 -7.60014 -16.9943
528 1 -16.7035 -5.88277 -16.7279 -16.7035 -5.88277 -16.7279
2798 1 -15.2735 -6.98911 -16.5009 18.7402 -6.98911 17.5128
865 1 -13.1613 -5.77808 -15.9532 -13.1613 -5.77808 -15.9532
11930 1 -11.0303 -6.13789 -16.1131 22.9834 -6.13789 17.9006
14187 1 -8.88962 -6.07739 -16.1025 25.1241 -6.07739 -16.1025
14469 1 -7.6807 -6.19994 -16.7022 26.333 27.8138 -16.7022
7149 1 -5.29042 -6.62716 -16.8713 -5.29042 -6.62716 17.1424
461 1 -3.88544 -7.00632 -16.1126 -3.88544 -7.00632 -16.1126
5143 1 -2.50825 -5.8649 -16.1786 -2.50825 -5.8649 -16.1786
12429 1 -1.3681 -6.50249 -16.7601 -1.3681 27.5112 -16.7601
10857 1 -0.0578549 -6.9571 -16.2167 -0.0578549 -6.9571 17.797
13312 1 -16.3577 -4.8217 -16.4206 17.656 -4.8217 -16.4206
12128 1 -15.2312 -5.37059 -16.8274 -15.2312 -5.37059 -16.8274
2288 1 -14.2037 -5.5205 -16.0011 -14.2037 -5.5205 18.0126
10912 1 -13.9789 -4.44771 -16.7384 20.0349 -4.44771 17.2753
1867 1 -10.382 -4.46111 -15.742 -10.382 -4.46111 -15.742
14227 1 -10.1247 -5.14657 -16.8644 23.889 -5.14657 -16.8644
12459 1 -7.83754 -5.07443 -16.0659 -7.83754 28.9393 -16.0659
11415 1 -6.53638 -5.27141 -16.8312 27.4773 -5.27141 17.1825
762 1 -5.72467 -4.41092 -16.2888 -5.72467 -4.41092 -16.2888
2242 1 -4.45222 -4.86799 -16.8378 -4.45222 -4.86799 17.1759
9145 1 -3.51963 -4.97045 -15.8879 -3.51963 -4.97045 -15.8879
9314 1 -1.68629 -4.57808 -16.106 -1.68629 -4.57808 -16.106
1606 1 -0.19868 -4.51265 -15.7389 -0.19868 -4.51265 -15.7389
1707 1 -1.01946 -5.56799 -15.5986 -1.01946 -5.56799 -15.5986
9410 1 -16.3646 -3.87169 -15.6724 17.6491 -3.87169 -15.6724
16163 1 -14.724 -3.99713 -16.2101 19.2897 -3.99713 17.8036
1383 1 -15.5437 -3.32379 -16.5588 -15.5437 -3.32379 -16.5588
10814 1 -12.8552 -2.93251 -16.288 21.1585 -2.93251 -16.288
7698 1 -11.4192 -4.06807 -16.0741 -11.4192 -4.06807 17.9396
84 1 -9.92841 -3.62744 -16.6238 -9.92841 -3.62744 -16.6238
1279 1 -8.80817 -4.16407 -16.8302 -8.80817 -4.16407 -16.8302
5081 1 -7.08445 -3.85531 -16.1353 -7.08445 -3.85531 -16.1353
8459 1 -5.6845 -3.01018 -16.5947 -5.6845 -3.01018 -16.5947
2560 1 -4.31922 -3.86003 -16.3619 -4.31922 -3.86003 17.6518
3970 1 -2.54749 -3.53366 -16.1419 -2.54749 -3.53366 17.8718
2980 1 -1.29659 -2.86211 -16.1088 -1.29659 -2.86211 -16.1088
15607 1 -14.7318 -1.86812 -16.0664 19.2819 -1.86812 17.9473
2701 1 -13.0543 -1.47757 -16.6588 -13.0543 -1.47757 17.3549
5524 1 -12.0197 -1.67067 -16.5332 -12.0197 -1.67067 -16.5332
2906 1 -11.0996 -2.82123 -16.5318 -11.0996 -2.82123 17.4819
3795 1 -10.2279 -1.54924 -16.7055 -10.2279 -1.54924 17.3083
14550 1 -9.04111 -2.48897 -16.0154 -9.04111 -2.48897 17.9983
16358 1 -7.78427 -1.99571 -16.1766 26.2294 -1.99571 17.8371
12222 1 -6.7723 -2.61521 -16.424 -6.7723 -2.61521 17.5897
8871 1 -5.0827 -2.2958 -15.9427 28.931 -2.2958 -15.9427
2026 1 -3.92323 -2.60541 -15.9765 -3.92323 -36.6191 -15.9765
3835 1 -3.57946 -1.4176 -16.2554 -3.57946 -1.4176 17.7583
1047 1 -2.63431 -2.40176 -16.2853 -2.63431 -2.40176 -16.2853
13684 1 -16.2311 -1.21223 -16.3597 17.7826 -1.21223 -16.3597
13554 1 -16.8263 -0.578711 -15.6684 17.1875 -0.578711 -15.6684
15245 1 -13.5758 -0.37128 -16.4841 20.4379 -0.37128 17.5296
4762 1 -11.9544 -0.315691 -16.4257 -11.9544 -0.315691 -16.4257
892 1 -10.9766 -1.10878 -15.9301 -10.9766 -1.10878 -15.9301
2896 1 -10.2289 -0.352796 -16.6748 -10.2289 -0.352796 17.3389
64 1 -8.51014 -0.854403 -16.4597 -8.51014 -0.854403 -16.4597
3495 1 -9.66236 -0.425455 -15.7663 -9.66236 -0.425455 18.2474
684 1 -7.53194 -0.611501 -16.0527 -7.53194 -0.611501 -16.0527
10086 1 -6.41788 -0.117345 -16.8151 -6.41788 -0.117345 -16.8151
3286 1 -6.05776 -0.716741 -15.7773 -6.05776 -0.716741 -15.7773
11849 1 -2.37262 -0.231559 -16.1382 31.6411 -0.231559 17.8755
953 1 -1.00585 -0.536775 -16.502 -1.00585 -0.536775 -16.502
12326 1 -15.8504 -15.7372 -14.6161 18.1634 -15.7372 19.3976
6660 1 -16.2104 -16.9262 -14.5156 -16.2104 17.0876 19.4981
2101 1 -14.901 -16.3755 -15.5576 -14.901 -16.3755 18.4562
661 1 -14.5226 -16.6161 -14.393 -14.5226 -16.6161 -14.393
10041 1 -13.1337 -16.8523 -14.7044 20.88 -16.8523 -14.7044
3418 1 -12.2737 -16.1909 -14.4409 -12.2737 -16.1909 19.5728
4829 1 -9.97946 -16.087 -14.2325 -9.97946 17.9267 -14.2325
6369 1 -11.0889 -16.8556 -14.3239 -11.0889 17.1581 19.6898
7751 1 -8.98173 -16.6224 -15.1139 -8.98173 17.3913 18.8998
2298 1 -7.94169 -16.7866 -14.3695 -7.94169 -16.7866 19.6442
1690 1 -7.17427 -16.7189 -15.4951 -7.17427 17.2948 -15.4951
9278 1 -6.85976 -16.1095 -14.5031 -6.85976 -16.1095 -14.5031
292 1 -5.59506 -16.9639 -14.5809 -5.59506 -16.9639 -14.5809
4519 1 -5.35707 -15.7459 -15.3264 -5.35707 18.2678 -15.3264
16084 1 -4.06647 -16.3447 -15.3713 -4.06647 17.669 18.6424
11914 1 -3.3135 -15.8788 -14.5488 -3.3135 -15.8788 19.4649
4616 1 -1.573 -16.123 -15.2311 -1.573 17.8907 -15.2311
6256 1 -16.6868 -15.1536 -15.5835 -16.6868 18.8601 18.4302
12844 1 -16.2511 -14.6744 -14.2007 17.7626 19.3393 -14.2007
7981 1 -14.86 -14.5988 -15.578 -14.86 19.4149 18.4357
8535 1 -14.5787 -15.56 -14.7308 -14.5787 -15.56 -14.7308
8786 1 -13.6717 -14.4087 -14.9819 20.342 -14.4087 -14.9819
921 1 -12.857 -15.3502 -14.635 -12.857 -15.3502 -14.635
14619 1 -10.6928 -14.907 -14.6753 23.3209 19.1067 -14.6753
7688 1 -9.27285 -15.2188 -14.6884 -9.27285 -15.2188 19.3253
5235 1 -7.89112 -15.1611 -14.2364 -7.89112 -15.1611 -14.2364
3745 1 -7.67627 -14.2029 -15.5077 -7.67627 -14.2029 18.506
15814 1 -5.88362 -14.6559 -15.1822 -5.88362 19.3578 18.8315
1661 1 -3.94985 -14.6729 -15.5243 -3.94985 -14.6729 -15.5243
10628 1 -2.40311 -14.7687 -15.4154 -2.40311 -14.7687 18.5983
10502 1 -0.78506 -15.0878 -14.3613 33.2287 -15.0878 19.6524
10378 1 -16.4052 -13.9125 -15.5656 17.6085 -13.9125 18.4481
7800 1 -16.2367 -12.9771 -15.0306 -16.2367 21.0366 18.9832
8453 1 -15.0886 -13.7907 -14.6506 18.9251 -13.7907 -14.6506
6463 1 -12.8389 -13.4013 -15.2791 -12.8389 20.6124 18.7346
10862 1 -10.7066 -13.238 -14.3562 23.3071 -13.238 19.6575
13995 1 -10.4962 -13.2902 -15.3541 -10.4962 20.7235 -15.3541
4246 1 -9.47054 -14.0726 -15.2421 -9.47054 19.9411 -15.2421
10048 1 -6.29362 -13.0492 -15.2201 -6.29362 -13.0492 -15.2201
910 1 -5.04267 -13.8595 -14.8165 -5.04267 -13.8595 -14.8165
12295 1 -5.37197 -12.7571 -14.4323 -5.37197 -12.7571 19.5814
5291 1 -3.41502 -14.1103 -14.278 -3.41502 19.9034 -14.278
11359 1 -1.7362 -13.0155 -14.4541 -1.7362 -13.0155 19.5596
10788 1 -2.30489 -13.1221 -15.4068 31.7088 -13.1221 18.6069
1065 1 -1.34102 -13.8543 -15.4892 -1.34102 -13.8543 -15.4892
1792 1 -0.585702 -14.1359 -14.8101 -0.585702 -14.1359 -14.8101
7695 1 -16.3147 -11.8493 -14.5676 -16.3147 22.1644 19.4461
1603 1 -15.0133 -12.691 -14.4583 -15.0133 -12.691 -14.4583
305 1 -15.2118 -11.8905 -15.3999 -15.2118 -11.8905 -15.3999
16266 1 -13.244 -12.3549 -15.5245 20.7697 21.6589 -15.5245
13137 1 -13.6365 -11.4605 -15.2979 20.3772 -11.4605 -15.2979
2868 1 -11.9707 -12.6078 -14.3661 -11.9707 -12.6078 19.6476
8937 1 -11.0409 -11.7538 -15.0085 22.9728 -11.7538 -15.0085
312 1 -9.26139 -12.4668 -15.1737 -9.26139 -12.4668 18.84
4413 1 -9.90239 -11.4368 -14.8507 -9.90239 22.5769 -14.8507
15352 1 -8.90717 -11.9086 -14.2015 25.1065 -11.9086 19.8122
10853 1 -7.18866 -12.4599 -14.6587 -7.18866 -12.4599 -14.6587
10664 1 -5.94432 -11.8056 -14.9084 28.0694 -11.8056 19.1053
4665 1 -3.84045 -12.534 -15.0955 -3.84045 21.4797 -15.0955
9355 1 -1.59284 -11.729 -14.6354 -1.59284 -11.729 19.3783
254 1 -0.776238 -12.5971 -14.8717 -0.776238 -12.5971 -14.8717
639 1 -16.4426 -11.1001 -15.4116 -16.4426 -11.1001 -15.4116
1883 1 -15.105 -10.6862 -15.3413 -15.105 -10.6862 -15.3413
4316 1 -14.0734 -10.4754 -14.5778 -14.0734 23.5383 -14.5778
13987 1 -12.6319 -10.072 -14.8576 21.3818 -10.072 -14.8576
5597 1 -12.1672 -10.9829 -14.319 -12.1672 23.0308 -14.319
8583 1 -11.3225 -10.5914 -15.1631 -11.3225 -10.5914 -15.1631
4980 1 -8.2727 -10.5348 -15.1479 -8.2727 -10.5348 -15.1479
12208 1 -7.10009 -11.1928 -15.4882 26.9136 -11.1928 18.5255
9246 1 -6.53497 -10.0666 -15.4453 27.4787 -10.0666 -15.4453
5116 1 -5.00022 -10.1995 -15.5099 -5.00022 -10.1995 -15.5099
10137 1 -4.80293 -11.3352 -14.7487 -4.80293 -11.3352 -14.7487
2128 1 -3.79532 -10.913 -15.4889 -3.79532 -10.913 18.5248
3125 1 -4.23496 -9.99928 -14.3125 -4.23496 -9.99928 19.7012
3816 1 -1.68602 -10.3514 -15.0128 -1.68602 -10.3514 19.0009
516 1 -2.62842 -11.0962 -14.3724 -2.62842 -11.0962 -14.3724
9352 1 -0.200898 -10.4055 -14.458 -0.200898 -10.4055 -14.458
4692 1 -16.7154 -9.8275 -14.6138 -16.7154 -9.8275 -14.6138
10243 1 -14.6374 -8.98053 -15.2891 -14.6374 -8.98053 -15.2891
15695 1 -15.4456 -9.58676 -14.3629 18.5681 24.427 19.6508
13199 1 -13.8039 -9.1498 -14.5037 -13.8039 24.8639 -14.5037
4269 1 -11.5435 -8.96054 -14.5923 -11.5435 -8.96054 -14.5923
376 1 -10.7993 -9.63256 -15.3739 -10.7993 -9.63256 -15.3739
8072 1 -9.60439 -9.91847 -15.4672 -9.60439 24.0952 18.5465
9906 1 -9.54588 -9.52786 -14.1788 -9.54588 -9.52786 -14.1788
3547 1 -7.35038 -9.33238 -15.5063 -7.35038 -9.33238 18.5074
8711 1 -8.42261 -9.2389 -14.4575 -8.42261 -9.2389 -14.4575
11112 1 -6.79614 -8.69496 -14.8348 -6.79614 -8.69496 19.179
10790 1 -3.00135 -9.42546 -15.3524 -3.00135 -9.42546 18.6613
11018 1 -3.99663 -8.56869 -14.9658 -3.99663 -8.56869 19.0479
1248 1 -2.79947 -9.52002 -14.1937 -2.79947 -9.52002 -14.1937
10615 1 -1.05795 -9.19919 -15.5369 -1.05795 -9.19919 18.4768
7783 1 -15.1156 -7.80721 -14.467 -15.1156 26.2065 -14.467
7447 1 -14.065 -7.74071 -14.2968 -14.065 -7.74071 19.7169
2832 1 -12.8802 -8.16818 -15.0717 -12.8802 -8.16818 18.942
12672 1 -10.7612 -7.67618 -14.7564 23.2525 -7.67618 -14.7564
2163 1 -9.5845 -8.21608 -15.1559 -9.5845 -8.21608 18.8578
320 1 -7.70677 -7.98742 -14.888 -7.70677 -7.98742 -14.888
9939 1 -5.58834 -8.46398 -14.5041 -5.58834 -8.46398 -14.5041
8421 1 -3.45183 -7.85374 -15.4711 -3.45183 -7.85374 -15.4711
2121 1 -2.7325 -7.89109 -14.4181 -2.7325 -7.89109 -14.4181
11526 1 -1.33844 -8.29949 -15.0153 -1.33844 -8.29949 18.9984
9990 1 -0.0590787 -7.45506 -14.7262 -0.0590787 -7.45506 -14.7262
468 1 -15.6242 -5.75867 -14.9773 -15.6242 -5.75867 -14.9773
1043 1 -16.3665 -6.92182 -14.4958 17.6472 -6.92182 -14.4958
9267 1 -14.8842 -6.611 -15.5833 19.1296 -6.611 -15.5833
6725 1 -12.9799 -7.02506 -14.1801 -12.9799 -7.02506 19.8336
224 1 -14.0212 -6.44868 -14.9674 -14.0212 -6.44868 -14.9674
8388 1 -12.6903 -6.72554 -15.2471 -12.6903 -6.72554 -15.2471
2478 1 -11.2943 -6.50399 -14.6384 -11.2943 -6.50399 19.3754
15042 1 -10.0506 -6.28721 -15.3904 23.9631 -6.28721 18.6233
5221 1 -9.46134 -6.64045 -14.4647 -9.46134 27.3733 19.549
8721 1 -8.37262 -7.05328 -15.5 -8.37262 -7.05328 -15.5
12043 1 -7.73851 -6.1264 -14.859 -7.73851 -6.1264 19.1547
8384 1 -6.3592 -7.05278 -14.21 -6.3592 -7.05278 -14.21
1020 1 -5.66321 -6.37396 -15.4753 -5.66321 -6.37396 -15.4753
452 1 -4.84407 -7.06876 -14.9513 -4.84407 -7.06876 -14.9513
9034 1 -3.40465 -6.49623 -15.1082 -3.40465 -6.49623 -15.1082
1677 1 -2.69688 -6.01741 -14.4455 -2.69688 -6.01741 -14.4455
4062 1 -2.32859 -7.07085 -15.1116 -2.32859 -7.07085 -15.1116
2352 1 -1.44272 -6.47284 -14.8686 -1.44272 -6.47284 -14.8686
1570 1 -16.581 -5.04935 -14.6915 17.4327 -5.04935 -14.6915
5891 1 -14.6171 -4.7223 -15.2323 -14.6171 -4.7223 -15.2323
3124 1 -13.6571 -4.5635 -14.6876 -13.6571 -4.5635 -14.6876
8777 1 -12.0482 -5.39892 -15.5347 -12.0482 -5.39892 18.479
11087 1 -12.3366 -4.45778 -15.3987 -12.3366 -4.45778 18.615
10268 1 -10.9055 -5.298 -14.4679 23.1082 -5.298 -14.4679
3885 1 -8.8003 -5.42821 -14.9802 -8.8003 -5.42821 19.0335
11190 1 -9.9175 -4.5253 -14.8116 -9.9175 -4.5253 19.2021
9539 1 -7.80235 -5.09142 -14.1981 -7.80235 -5.09142 -14.1981
14071 1 -5.95253 -4.9413 -14.9644 -5.95253 29.0724 -14.9644
12771 1 -6.79826 -5.51837 -15.3725 -6.79826 28.4953 -15.3725
5203 1 -4.3294 -5.64444 -15.1346 -38.3431 -5.64444 -15.1346
5089 1 -4.98663 -4.78711 -15.326 -4.98663 -4.78711 -15.326
11257 1 -3.84989 -4.72797 -14.263 -3.84989 -4.72797 19.7507
8984 1 -2.55197 -4.98624 -14.74 -2.55197 -4.98624 -14.74
11231 1 -1.60639 -4.25499 -14.6354 -1.60639 -4.25499 19.3783
15544 1 -0.650196 -5.21296 -14.704 -0.650196 -5.21296 19.3097
15775 1 -15.8294 -4.07586 -14.6409 18.1843 -4.07586 19.3728
9620 1 -14.215 -3.47346 -14.8505 19.7987 -3.47346 -14.8505
10583 1 -13.1064 -3.59819 -15.344 20.9073 -3.59819 -15.344
1336 1 -11.0289 -3.18663 -14.9729 -11.0289 -3.18663 -14.9729
6578 1 -9.7567 -3.26007 -15.3221 -9.7567 -3.26007 18.6916
4849 1 -8.76954 -3.19139 -14.2852 -8.76954 30.8223 19.7285
9624 1 -8.37076 -4.15119 -15.354 25.643 -4.15119 -15.354
10506 1 -7.9983 -3.87213 -14.2045 26.0154 -3.87213 19.8093
5352 1 -7.73015 -2.93144 -15.1891 -7.73015 -2.93144 -15.1891
8515 1 -6.79894 -4.21638 -14.5984 27.2148 -4.21638 -14.5984
122 1 -6.88397 -2.97266 -14.1979 -6.88397 -2.97266 -14.1979
7782 1 -5.66565 -3.40511 -15.5161 -5.66565 -3.40511 18.4976
838 1 -5.15493 -3.94006 -14.2418 -5.15493 -3.94006 -14.2418
12090 1 -4.26794 -3.25998 -15.1423 29.7458 -3.25998 18.8714
12024 1 -3.09487 -3.75269 -14.841 -3.09487 -3.75269 19.1727
5596 1 -1.58606 -2.98285 -15.0626 -1.58606 31.0309 -15.0626
10391 1 -0.205456 -3.20698 -14.5723 -0.205456 -3.20698 -14.5723
11169 1 -15.8948 -1.73433 -14.7849 18.1189 -1.73433 19.2289
9079 1 -15.5155 -2.73042 -15.5475 18.4983 -2.73042 -15.5475
3051 1 -13.5345 -1.8078 -15.5115 -13.5345 -1.8078 18.5022
15100 1 -13.9722 -2.41674 -14.5965 20.0415 -2.41674 19.4172
13268 1 -12.2544 -2.33661 -14.9686 -12.2544 -2.33661 -14.9686
2291 1 -11.201 -2.26699 -15.5308 -11.201 -2.26699 18.4829
7006 1 -9.55347 -1.42027 -15.0756 -9.55347 -1.42027 18.9381
5974 1 -6.33093 -1.90515 -15.0876 -6.33093 -1.90515 -15.0876
3078 1 -5.56379 -2.80668 -14.2218 -5.56379 -2.80668 -14.2218
8063 1 -3.22712 -2.68906 -14.62 -3.22712 -2.68906 19.3937
9082 1 -0.851918 -1.68527 -15.2486 -0.851918 -1.68527 -15.2486
12753 1 -14.4557 -1.10584 -15.2631 19.558 -1.10584 -15.2631
10770 1 -15.554 -0.478532 -14.9453 18.4597 -0.478532 19.0685
1072 1 -12.8386 -0.693886 -15.4752 -12.8386 -0.693886 -15.4752
12660 1 -13.9497 -0.572685 -14.1844 20.064 -0.572685 -14.1844
14786 1 -12.6816 -1.3537 -14.2983 21.3321 -1.3537 19.7154
15471 1 -11.4374 -0.706249 -14.8008 22.5763 -0.706249 19.2129
14411 1 -8.69 -0.730273 -14.6227 -8.69 -0.730273 19.391
7510 1 -6.44425 -0.935039 -14.529 -6.44425 -0.935039 19.4847
13096 1 -5.14213 -1.16468 -15.4489 -5.14213 -1.16468 -15.4489
4717 1 -4.72752 -0.408349 -14.8742 -4.72752 -0.408349 -14.8742
7102 1 -3.84501 -1.25923 -14.981 -3.84501 32.7545 19.0327
13563 1 -3.67854 -0.159838 -15.5125 -3.67854 -0.159838 -15.5125
12294 1 -2.27954 -1.41133 -15.5768 -2.27954 -1.41133 18.437
7908 1 -2.00816 -1.39096 -14.5891 -2.00816 -1.39096 19.4246
4329 1 -0.709137 -0.421872 -15.3899 -0.709137 -0.421872 -15.3899
11409 1 -0.253615 -1.27876 -14.2081 -0.253615 -1.27876 19.8056
10250 1 -16.4681 -16.5419 -13.4974 17.5456 -16.5419 -13.4974
2939 1 -15.3258 -16.5952 -13.446 -15.3258 -16.5952 20.5677
9552 1 -12.9661 -16.0596 -13.6042 21.0476 -16.0596 -13.6042
12348 1 -9.96626 -15.8279 -12.9771 24.0475 -15.8279 -12.9771
12455 1 -10.8245 -16.7018 -13.2308 -10.8245 17.3119 -13.2308
855 1 -8.73026 -15.6885 -12.9322 -8.73026 -15.6885 -12.9322
7613 1 -9.05551 -16.7351 -13.7469 -9.05551 17.2787 20.2669
5518 1 -7.54526 -16.5816 -13.2114 -7.54526 17.4321 -13.2114
5608 1 -6.1463 -16.0318 -12.8357 -6.1463 17.9819 -12.8357
15212 1 -5.5683 -16.8299 -13.3585 -5.5683 17.1838 20.6553
5577 1 -3.78223 -16.5106 -13.4389 -3.78223 17.5031 -13.4389
15460 1 -1.96639 -16.1681 -14.0641 32.0473 17.8456 19.9496
1229 1 -0.703105 -16.117 -13.7096 -0.703105 -16.117 -13.7096
1514 1 -15.5933 -15.3909 -13.088 -15.5933 -15.3909 -13.088
15926 1 -15.8732 -14.1762 -13.0438 18.1405 19.8375 20.9699
8192 1 -14.241 -14.5111 -13.8378 -14.241 19.5026 20.176
6076 1 -13.6848 -15.1534 -13.1081 -13.6848 18.8603 -13.1081
6866 1 -11.9103 -14.7796 -13.6458 -11.9103 19.2341 20.3679
4438 1 -10.9139 -15.3629 -13.6761 -10.9139 18.6509 -13.6761
1193 1 -10.214 -14.3128 -13.5414 -10.214 -14.3128 -13.5414
10535 1 -8.12836 -14.8011 -12.9464 25.8854 -14.8011 -12.9464
15998 1 -6.12999 -15.165 -14.1168 -6.12999 -15.165 19.8969
1339 1 -6.57045 -14.4773 -13.2175 -6.57045 -14.4773 -13.2175
12118 1 -4.39967 -14.509 -13.1757 -4.39967 -14.509 -13.1757
3417 1 -4.73493 -15.542 -13.7947 -4.73493 -15.542 20.219
804 1 -2.66209 -14.9648 -12.9022 -2.66209 -14.9648 -12.9022
14552 1 -1.79571 -14.6555 -14.0536 -1.79571 19.3582 19.9601
5413 1 -0.471818 -14.6137 -13.1073 -0.471818 19.4 -13.1073
11033 1 -16.5831 -13.3828 -13.3713 17.4306 -13.3828 20.6424
9239 1 -15.2122 -13.3179 -13.5894 18.8015 20.6958 -13.5894
11940 1 -12.7822 -14.0256 -13.9532 21.2315 -14.0256 20.0605
10207 1 -13.7216 -13.208 -13.3579 20.2921 -13.208 -13.3579
9994 1 -11.5396 -13.743 -12.9549 22.4742 -13.743 -12.9549
12072 1 -9.04642 -13.5526 -14.0877 24.9673 -13.5526 19.926
3070 1 -7.47805 -13.5339 -13.5294 -7.47805 -13.5339 20.4843
4030 1 -6.35695 -13.671 -14.0496 -6.35695 -13.671 19.9642
11234 1 -4.39362 -13.0703 -14.0145 -4.39362 -13.0703 19.9992
12550 1 -5.1866 -13.3878 -13.0578 -5.1866 -13.3878 -13.0578
8889 1 -0.348054 -13.1641 -13.9587 -0.348054 -13.1641 -13.9587
3882 1 -1.05792 -13.3464 -12.9624 -1.05792 -13.3464 -12.9624
256 1 -14.9364 -11.8988 -13.8425 -14.9364 -11.8988 -13.8425
736 1 -13.5455 -11.574 -13.4211 -13.5455 -11.574 -13.4211
2238 1 -12.6739 -12.5239 -13.2978 -12.6739 -12.5239 20.7159
12886 1 -10.1501 -12.1469 -13.6661 -10.1501 21.8668 -13.6661
273 1 -11.1918 -12.3713 -12.9126 -11.1918 -12.3713 -12.9126
1663 1 -8.46132 -12.5328 -13.4173 -8.46132 -12.5328 -13.4173
6512 1 -6.7706 -12.016 -13.6424 -6.7706 21.9977 20.3713
11513 1 -5.50507 -11.9074 -12.9327 -5.50507 -11.9074 21.081
16370 1 -3.42048 -11.6816 -13.755 -3.42048 22.3321 20.2587
10121 1 -3.14823 -12.6737 -13.2638 -3.14823 -12.6737 -13.2638
12783 1 -2.54093 -12.352 -14.1188 -2.54093 21.6617 -14.1188
10844 1 -1.52644 -12.3298 -13.4807 -1.52644 -12.3298 20.533
1241 1 -0.598036 -11.4861 -14.1375 -34.6117 -11.4861 -14.1375
8294 1 -0.0238278 -11.5209 -12.8948 -0.0238278 -11.5209 -12.8948
4923 1 -15.9777 -10.5094 -14.0105 -15.9777 23.5043 -14.0105
1607 1 -16.5036 -10.9355 -13.0067 -16.5036 -10.9355 -13.0067
9831 1 -14.4737 -10.1074 -13.1806 19.54 -10.1074 -13.1806
8527 1 -12.7022 -10.8702 -12.9878 21.3115 -10.8702 -12.9878
11950 1 -10.3973 -11.0043 -13.2337 23.6164 -11.0043 20.78
2569 1 -11.1257 -10.0186 -13.3945 -11.1257 -10.0186 20.6192
1798 1 -9.18342 -10.6943 -14.1215 -9.18342 -10.6943 -14.1215
3645 1 -7.88891 -11.2509 -14.1178 -7.88891 -11.2509 19.896
13343 1 -6.77098 -10.8469 -13.7972 -6.77098 23.1668 -13.7972
2490 1 -5.49651 -11.0667 -13.671 -5.49651 -11.0667 20.3427
839 1 -4.33835 -11.2747 -13.0274 -4.33835 -11.2747 -13.0274
1675 1 -5.09481 -10.2367 -13.1137 -5.09481 -10.2367 -13.1137
1831 1 -3.65464 -10.0322 -13.2821 -3.65464 -10.0322 -13.2821
13639 1 -2.77338 -11.0455 -12.8123 -2.77338 22.9682 -12.8123
7166 1 -1.53251 -11.0342 -13.3782 -35.5462 22.9795 20.6355
6230 1 -0.441815 -10.3373 -13.1998 -0.441815 -10.3373 20.8139
6853 1 -16.6674 -9.64112 -13.0531 -16.6674 24.3726 20.9606
11955 1 -15.0348 -8.93617 -13.4247 -15.0348 -8.93617 20.589
10385 1 -12.9825 -8.67614 -13.879 21.0312 -8.67614 -13.879
3748 1 -13.5761 -9.14545 -12.8435 -13.5761 -9.14545 21.1702
5086 1 -12.7445 -9.9073 -13.7568 -12.7445 24.1064 20.2569
2243 1 -10.2237 -8.74904 -13.3364 -10.2237 -8.74904 20.6773
10702 1 -10.1276 -9.78243 -13.2464 -10.1276 -9.78243 20.7673
12785 1 -8.38264 -8.9698 -13.1294 -8.38264 -8.9698 -13.1294
1321 1 -6.15595 -9.90646 -14.0817 -6.15595 -9.90646 -14.0817
7878 1 -6.98989 -8.90244 -13.0758 -6.98989 25.1113 20.9379
8657 1 -4.67839 -9.09225 -13.679 -4.67839 -9.09225 -13.679
10240 1 -2.15933 -9.89208 -13.3434 -2.15933 -9.89208 -13.3434
363 1 -1.91316 -8.87815 -12.8646 -1.91316 -8.87815 -12.8646
2454 1 -0.928573 -9.16874 -14.0158 -0.928573 -9.16874 -14.0158
13768 1 -0.903436 -8.92659 -12.7803 -0.903436 25.0871 -12.7803
14547 1 -16.5402 -8.19997 -14.0126 17.4736 -8.19997 20.0012
3649 1 -15.4777 -7.12549 -13.6133 -15.4777 -7.12549 -13.6133
10399 1 -12.8044 -7.27275 -12.8114 21.2093 -7.27275 -12.8114
2381 1 -12.2751 -7.88308 -13.5242 -12.2751 -7.88308 20.4895
12124 1 -11.0804 -8.17779 -13.8332 -11.0804 -8.17779 -13.8332
6141 1 -8.64008 -8.25036 -13.9799 -8.64008 25.7634 20.0339
10453 1 -8.83754 -7.1774 -13.6313 25.1762 -7.1774 20.3824
14117 1 -7.42612 -7.564 -13.8251 -7.42612 -7.564 -13.8251
13515 1 -6.05232 -8.28465 -13.4216 27.9614 -8.28465 -13.4216
13514 1 -6.34414 -7.39896 -13.0289 -6.34414 -7.39896 -13.0289
1727 1 -4.54693 -7.6685 -13.0073 -4.54693 -7.6685 -13.0073
4474 1 -2.91217 -8.25527 -13.0956 -2.91217 25.7584 -13.0956
4941 1 -1.51711 -7.1088 -13.6109 -1.51711 26.9049 -13.6109
12283 1 -1.22969 -8.17111 -13.7307 -1.22969 -8.17111 20.283
12977 1 -0.372299 -7.97293 -12.8506 -0.372299 -7.97293 -12.8506
5901 1 -16.0985 -5.98771 -12.8247 -16.0985 -5.98771 -12.8247
1710 1 -13.9078 -6.38372 -13.048 -13.9078 -6.38372 -13.048
763 1 -11.6375 -6.9157 -13.5979 -11.6375 -6.9157 -13.5979
352 1 -10.5331 -6.88337 -13.1796 -10.5331 -6.88337 -13.1796
12149 1 -8.06536 -6.75875 -12.9013 -8.06536 -6.75875 21.1124
11751 1 -6.86627 -6.04418 -13.8955 27.1474 -6.04418 20.1183
10354 1 -5.27756 -6.41757 -12.9021 28.7361 -6.41757 -12.9021
350 1 -4.01232 -6.56557 -13.7379 -4.01232 -6.56557 -13.7379
11915 1 -3.09972 -5.97127 -12.8547 -3.09972 -5.97127 21.159
9790 1 -1.95559 -5.76917 -13.3498 -1.95559 -5.76917 -13.3498
9666 1 -15.4556 -5.08407 -13.533 18.5581 -5.08407 -13.533
14183 1 -14.4036 -4.87473 -13.0462 19.6101 29.139 -13.0462
1511 1 -14.0639 -5.49007 -14.0492 -14.0639 -5.49007 -14.0492
2735 1 -13.2613 -5.37978 -12.7648 -13.2613 -5.37978 -12.7648
4753 1 -12.6036 -5.21966 -14.1209 -12.6036 -5.21966 -14.1209
13232 1 -10.2915 -4.586 -13.6016 23.7222 -4.586 -13.6016
12483 1 -11.325 -5.26183 -13.2499 -11.325 -5.26183 -13.2499
9330 1 -9.29044 -5.14282 -13.9068 24.7233 -5.14282 -13.9068
1741 1 -5.73182 -5.54478 -13.6014 -5.73182 -39.5585 -13.6014
2075 1 -4.27533 -5.5375 -13.8817 -4.27533 -5.5375 20.132
8390 1 -4.73431 -4.55868 -12.8082 -4.73431 -4.55868 -12.8082
3114 1 -2.60355 -4.80511 -13.4323 -2.60355 -4.80511 -13.4323
8767 1 -0.416023 -5.18563 -13.4806 -0.416023 -5.18563 -13.4806
5076 1 -16.3459 -2.90571 -12.8834 -16.3459 31.108 -12.8834
80 1 -15.8335 -2.97498 -14.1677 -15.8335 -2.97498 -14.1677
7197 1 -14.8151 -3.83782 -13.8592 -14.8151 -3.83782 20.1545
3574 1 -14.9272 -3.64187 -12.8547 -14.9272 -3.64187 21.159
4904 1 -12.7483 -3.22721 -14.0622 -12.7483 -3.22721 -14.0622
5332 1 -11.7637 -4.15684 -13.3327 -11.7637 -4.15684 20.681
2727 1 -11.7643 -3.07529 -13.2607 -11.7643 -3.07529 -13.2607
12986 1 -10.004 -3.08991 -14.1577 -10.004 -3.08991 -14.1577
622 1 -10.5129 -3.29366 -13.2004 -10.5129 -3.29366 -13.2004
10130 1 -6.90305 -4.06666 -13.398 27.1107 -4.06666 -13.398
15523 1 -5.62847 -3.47596 -13.1368 -5.62847 -3.47596 20.8769
1679 1 -4.23492 -3.85265 -13.653 -4.23492 -3.85265 -13.653
6507 1 -3.28614 -3.95437 -12.7749 -3.28614 30.0593 -12.7749
6601 1 -0.846825 -3.706 -13.755 -0.846825 -3.706 20.2587
12173 1 -16.3397 -1.54501 -13.0008 17.6741 -1.54501 21.0129
2366 1 -14.9164 -1.87201 -13.6666 -14.9164 -1.87201 20.3471
8736 1 -13.9431 -1.83891 -13.0633 20.0706 -1.83891 -13.0633
1527 1 -12.62 -2.38507 -12.977 -12.62 -2.38507 -12.977
11740 1 -11.7566 -1.70555 -13.9194 22.2571 -1.70555 20.0943
3805 1 -9.53169 -1.99531 -14.0019 -9.53169 -1.99531 20.0118
13491 1 -8.93888 -2.47578 -13.1419 25.0748 31.5379 -13.1419
5220 1 -7.5292 -1.51442 -14.1661 -7.5292 -1.51442 -14.1661
9221 1 -7.73368 -2.39527 -13.4513 -7.73368 -2.39527 -13.4513
9206 1 -6.22835 -1.81708 -13.3591 -6.22835 -1.81708 -13.3591
9361 1 -5.22838 -1.64467 -14.0461 -5.22838 -1.64467 -14.0461
8961 1 -4.35398 -2.49615 -13.6057 -4.35398 -2.49615 -13.6057
2841 1 -3.21551 -1.5093 -13.7258 -3.21551 -1.5093 20.2879
4386 1 -1.87846 -2.46899 -13.3184 -1.87846 -2.46899 -13.3184
12405 1 -1.00666 -2.44079 -13.9338 -1.00666 -2.44079 -13.9338
4614 1 -16.2091 -0.918381 -14.1262 -16.2091 -0.918381 -14.1262
9365 1 -14.8048 -0.632195 -13.045 -14.8048 -0.632195 -13.045