ITEM: TIMESTEP
2500
ITEM: NUMBER OF ATOMS
16384
ITEM: BOX BOUNDS pp pp pp
-1.7006855707231768e+01 1.7006855707231768e+01
-1.7006855707231768e+01 1.7006855707231768e+01
-1.7006855707231768e+01 1.7006855707231768e+01
ITEM: ATOMS id type x y z xu yu zu
7216 1 -15.8601 -16.534 -16.2646 -15.8601 17.4797 17.7491
6256 1 -14.6564 -15.9964 -15.4412 -14.6564 18.0174 18.5726
4014 1 -16.0256 -15.4184 -16.4065 -16.0256 -15.4184 17.6073
8923 1 -13.9505 -16.7936 -16.7029 -13.9505 -16.7936 -16.7029
2939 1 -13.4485 -15.8733 -15.7613 -13.4485 -15.8733 18.2525
261 1 -16.8402 -4.22985 -5.62801 -16.8402 -4.22985 -5.62801
6463 1 -12.1231 -15.5622 -15.2783 -12.1231 18.4515 18.7354
13064 1 -12.0573 -16.419 -16.5984 21.9564 17.5948 17.4153
15997 1 -9.76124 -16.3637 -15.5596 -9.76124 17.65 18.4541
3150 1 -15.5004 -0.311008 -8.13203 -15.5004 -0.311008 -8.13203
10093 1 -8.52449 -16.4835 -16.0389 25.4892 -16.4835 -16.0389
7718 1 -7.37002 -15.4637 -16.3536 -7.37002 18.55 17.6601
7428 1 -6.31847 -16.2431 -16.3236 -6.31847 17.7706 17.6901
10592 1 -4.33314 -15.1183 -16.815 29.6806 -15.1183 17.1987
3934 1 -5.12259 -16.3151 -16.9726 -5.12259 -16.3151 17.0411
11572 1 -3.54307 -15.9902 -15.9502 -3.54307 18.0235 18.0635
8917 1 -6.51444 -0.189738 -10.4582 -6.51444 -0.189738 -10.4582
1661 1 -1.74426 -16.2708 -16.2195 -1.74426 -16.2708 -16.2195
14759 1 -0.493114 -16.2805 -16.3567 -0.493114 17.7332 17.657
15344 1 -16.8672 -14.6859 -16.8579 17.1465 19.3278 17.1558
4805 1 -16.4415 -0.373787 -7.27711 -16.4415 -0.373787 -7.27711
11628 1 -13.5281 -14.6347 -16.045 20.4856 -14.6347 17.9687
6866 1 -12.1853 -14.4167 -15.6883 -12.1853 19.597 18.3254
13995 1 -11.2613 -14.3774 -16.6086 -11.2613 19.6363 -16.6086
12004 1 -10.6528 -15.6627 -15.4168 23.3609 18.351 18.5969
1281 1 -9.67255 -14.4854 -16.1883 -9.67255 -14.4854 -16.1883
3899 1 -8.55591 -15.5528 -16.5645 -8.55591 -15.5528 17.4492
3010 1 -7.72197 -14.758 -16.9595 -7.72197 -14.758 17.0542
7864 1 -5.90077 -15.0977 -16.6752 -5.90077 18.916 17.3385
11359 1 -4.09453 -14.5631 -15.5014 -4.09453 -14.5631 18.5123
15558 1 -2.25539 -14.9955 -15.3615 -2.25539 19.0182 18.6522
910 1 -3.3209 -14.6034 -16.5902 -3.3209 -14.6034 -16.5902
9992 1 -0.303678 -15.2568 -16.8872 33.71 -15.2568 -16.8872
4910 1 -16.5538 -12.8014 -16.2167 -16.5538 -12.8014 -16.2167
8786 1 -14.4033 -13.9605 -15.6608 19.6104 -13.9605 -15.6608
10387 1 -14.3083 -13.2331 -16.9747 19.7054 -13.2331 17.039
1414 1 -13.9174 -12.9993 -15.5227 -13.9174 -12.9993 -15.5227
5786 1 -13.0008 -13.7602 -16.8639 -13.0008 20.2535 -16.8639
6272 1 -10.0852 -13.4574 -15.752 -10.0852 20.5563 18.2618
192 1 -3.52309 -16.9885 -4.68725 -3.52309 -16.9885 -4.68725
5478 1 -9.02978 -13.5132 -16.7953 -9.02978 20.5006 -16.7953
14052 1 -7.68817 -13.6126 -16.2112 26.3255 20.4011 -16.2112
12118 1 -5.3656 -13.9428 -16.3726 -5.3656 -13.9428 -16.3726
13970 1 -4.56168 -13.2612 -15.3025 -4.56168 -13.2612 -15.3025
5064 1 -3.30967 -0.096976 -2.58264 -3.30967 -0.096976 -2.58264
1852 1 -1.19426 -14.2024 -16.3853 -1.19426 -14.2024 -16.3853
10478 1 -0.599109 -13.0957 -16.3098 -0.599109 -13.0957 17.7039
11940 1 -15.2581 -12.529 -16.2904 18.7556 -12.529 17.7233
15130 1 -12.6598 -16.788 -4.78348 21.3539 17.2257 -4.78348
8635 1 -13.9907 -12.1416 -16.3076 20.023 -12.1416 -16.3076
2238 1 -12.979 -12.0843 -15.9439 -12.979 -12.0843 18.0698
3531 1 -11.7102 -12.6146 -16.8124 -11.7102 -12.6146 17.2014
4023 1 -9.15914 -12.3693 -16.9312 -9.15914 -12.3693 17.0825
13632 1 -9.402 -0.143656 -7.97733 -9.402 -0.143656 -7.97733
3460 1 -5.84294 -12.2291 -15.86 -5.84294 -12.2291 -15.86
1795 1 -4.89494 -12.9351 -16.6837 -4.89494 -12.9351 -16.6837
11401 1 -3.79003 -12.2543 -16.6608 -3.79003 -12.2543 17.3529
2882 1 -1.96644 -11.1609 -16.7857 -1.96644 -11.1609 17.228
5486 1 -2.33792 -12.2453 -16.5394 -2.33792 21.7684 -16.5394
6397 1 -0.51265 -11.3266 -15.8551 -0.51265 22.6871 18.1586
8288 1 -15.8608 -9.87722 -16.6253 18.1529 -9.87722 -16.6253
10276 1 -16.2001 -10.7568 -15.8807 17.8137 -10.7568 -15.8807
2569 1 -13.5669 -10.0407 -16.6185 -13.5669 -10.0407 17.3952
2794 1 -15.6684 -11.4301 -16.6615 -15.6684 -11.4301 17.3522
2868 1 -13.2791 -10.7479 -15.6456 -13.2791 -10.7479 18.3681
13199 1 -11.4179 -11.4635 -16.379 -11.4179 22.5502 -16.379
12072 1 -10.1874 -11.2528 -15.6014 23.8263 -11.2528 18.4124
130 1 -8.17306 -10.7246 -16.8541 -8.17306 -10.7246 -16.8541
9592 1 -7.6875 -10.373 -15.9167 -7.6875 -10.373 -15.9167
1240 1 -14.3691 -0.0656923 -6.54722 -14.3691 -0.0656923 -6.54722
3906 1 -5.85371 -11.099 -15.8855 -5.85371 -11.099 18.1282
271 1 -4.62532 -11.1393 -16.1013 -4.62532 -11.1393 -16.1013
11063 1 -2.34039 -10.0468 -15.9613 -2.34039 -10.0468 18.0524
9355 1 -1.38229 -10.3561 -15.7821 -1.38229 -10.3561 18.2316
11143 1 -16.1968 -8.34058 -16.7055 17.8169 -8.34058 17.3082
1378 1 -13.985 -8.99965 -16.4983 -13.985 -8.99965 -16.4983
1228 1 -13.9227 -8.91923 -15.1105 -13.9227 -8.91923 -15.1105
1278 1 -12.2522 -10.1285 -16.9988 -12.2522 -10.1285 -16.9988
6218 1 -10.4734 -9.59933 -16.7911 -10.4734 24.4144 17.2226
1657 1 -9.15569 -8.74227 -16.7446 -9.15569 -8.74227 -16.7446
15352 1 -6.53829 -9.16084 -16.7789 27.4754 -9.16084 17.2348
2163 1 -8.29039 -9.10659 -15.6189 -8.29039 -9.10659 18.3948
6129 1 -5.7327 -9.85964 -15.8415 -5.7327 -9.85964 18.1722
3816 1 -3.8876 -10.3693 -16.5358 -3.8876 -10.3693 17.4779
2063 1 -4.93154 -9.10621 -16.2466 -4.93154 -9.10621 17.7671
8581 1 -0.351606 -9.75213 -15.8004 -0.351606 -9.75213 -15.8004
5379 1 -16.8541 -7.37047 -16.5295 -16.8541 26.6432 -16.5295
12128 1 -14.9924 -8.57379 -16.2673 -14.9924 -8.57379 -16.2673
7013 1 -12.2958 -8.25875 -15.8058 -12.2958 25.755 18.2079
3592 1 -10.7323 -7.71259 -16.7665 -10.7323 -7.71259 17.2472
9539 1 -8.58362 -7.88351 -15.6957 -8.58362 -7.88351 -15.6957
3547 1 -6.39897 -7.72139 -16.8572 -6.39897 -7.72139 17.1565
12459 1 -6.78947 -7.1581 -16.0097 -6.78947 26.8556 -16.0097
1321 1 -5.19734 -7.55183 -16.1865 -5.19734 -7.55183 -16.1865
2393 1 -3.26851 -8.36313 -15.5222 -3.26851 -8.36313 -15.5222
9916 1 -3.67577 -7.28631 -16.2996 -3.67577 -7.28631 -16.2996
3995 1 -1.87345 -8.69744 -16.3184 -1.87345 -8.69744 17.6953
1612 1 -2.1842 -6.92122 -16.734 -2.1842 -6.92122 -16.734
15421 1 -1.05175 -8.31854 -15.8152 -1.05175 25.6952 -15.8152
10886 1 -15.1123 -7.26015 -16.8887 18.9014 -7.26015 17.1251
2254 1 -16.2918 -5.79459 -16.3297 -16.2918 -5.79459 17.6841
9267 1 -14.0473 -6.89047 -16.5273 19.9664 -6.89047 -16.5273
8388 1 -11.7224 -7.06093 -16.0929 -11.7224 -7.06093 -16.0929
5727 1 -13.8259 -5.80337 -16.5637 -13.8259 -5.80337 -16.5637
10912 1 -12.5287 -5.81987 -16.7332 21.485 -5.81987 17.2806
704 1 -11.1263 -6.42111 -16.6323 -11.1263 -6.42111 -16.6323
3885 1 -8.88355 -6.71601 -16.4055 -8.88355 -6.71601 17.6082
7114 1 -16.7034 -16.6157 -3.84236 -16.7034 17.398 -3.84236
13013 1 -7.73853 -6.51836 -15.4642 -7.73853 27.4954 -15.4642
11190 1 -7.76623 -5.4607 -16.3995 -7.76623 -5.4607 17.6142
8721 1 -6.17231 -5.8369 -16.3316 -6.17231 -5.8369 -16.3316
461 1 -4.99058 -6.53376 -15.6038 -4.99058 -6.53376 -15.6038
1666 1 -4.28003 -6.29311 -16.4777 -4.28003 -6.29311 -16.4777
1973 1 -10.4682 -16.4878 -6.00722 -10.4682 -16.4878 -6.00722
10134 1 -2.70017 -5.84792 -16.7997 -2.70017 -5.84792 -16.7997
15213 1 -2.61192 -7.19183 -15.2163 -2.61192 26.8219 18.7974
13146 1 -15.8937 -4.51947 -16.5869 18.12 -4.51947 -16.5869
13684 1 -12.4562 -4.52506 -16.6446 21.5576 -4.52506 -16.6446
5221 1 -12.1872 -5.70604 -15.383 -12.1872 28.3077 18.6307
2906 1 -11.2049 -3.6517 -16.3035 -11.2049 -3.6517 17.7102
14117 1 -10.5871 -5.47868 -16.5619 -10.5871 -5.47868 -16.5619
7782 1 -9.61515 -4.65097 -15.5244 -9.61515 -4.65097 18.4893
3495 1 -8.53903 -4.39675 -16.2463 -8.53903 -4.39675 17.7674
13514 1 -8.3947 -5.42308 -15.0347 -8.3947 -5.42308 -15.0347
662 1 -8.72152 -0.223395 -5.80809 -8.72152 -0.223395 -5.80809
3705 1 -0.19356 -11.2167 -3.11532 -0.19356 -11.2167 -3.11532
7149 1 -4.81644 -4.39166 -16.484 -4.81644 -4.39166 17.5297
5089 1 -2.24021 -4.68116 -16.3822 -2.24021 -4.68116 -16.3822
7837 1 -1.18557 -5.5734 -16.1837 -1.18557 -5.5734 17.83
6519 1 -0.790964 -4.39175 -16.5775 -0.790964 -4.39175 17.4362
865 1 -15.1951 -3.22622 -15.9875 -15.1951 -3.22622 -15.9875
230 1 -11.6589 -6.53127 -0.130236 -11.6589 -6.53127 -0.130236
2288 1 -14.2235 -4.46612 -16.1972 -14.2235 -4.46612 17.8166
233 1 -14.1965 -2.65247 -14.9216 -14.1965 -2.65247 -14.9216
6725 1 -14.0269 -3.23379 -15.7451 -14.0269 -3.23379 18.2686
570 1 -12.8047 -3.26428 -16.1941 -12.8047 -3.26428 -16.1941
13232 1 -10.9395 -3.08499 -15.3842 23.0742 -3.08499 -15.3842
10909 1 -10.1302 -3.40589 -16.2996 23.8835 -3.40589 17.7141
9624 1 -9.00394 -3.16389 -15.4469 25.0098 -3.16389 -15.4469
5081 1 -8.02908 -3.49116 -16.9161 -8.02908 -3.49116 -16.9161
12301 1 -6.93412 -2.84851 -16.1539 -6.93412 -2.84851 17.8598
1788 1 -6.1019 -3.65731 -16.0068 -6.1019 -37.671 -16.0068
2560 1 -4.47416 -3.14666 -16.9324 -4.47416 -3.14666 17.0813
10407 1 -3.2597 -3.33676 -16.2822 -3.2597 -3.33676 -16.2822
9082 1 -2.03103 -3.43403 -16.4021 -2.03103 -3.43403 -16.4021
4208 1 -1.97167 -16.7473 -1.68025 -1.97167 17.2664 -1.68025
9359 1 -14.4498 -11.0294 -16.7702 19.5639 -11.0294 -16.7702
15607 1 -16.364 -1.91315 -16.8767 17.6497 -1.91315 17.137
2701 1 -14.9592 -1.97707 -16.1968 -14.9592 -1.97707 17.8169
5131 1 -11.4299 -1.96475 -16.1032 -11.4299 -1.96475 -16.1032
3855 1 -10.0365 -1.91615 -15.5402 -10.0365 -1.91615 18.4735
1279 1 -8.33914 -2.43575 -16.5458 -8.33914 -2.43575 -16.5458
7492 1 -5.43916 -2.53575 -16.8715 -5.43916 -2.53575 17.1422
14411 1 -7.50335 -1.75623 -16.4133 -7.50335 -1.75623 17.6004
13096 1 -4.86691 -1.77331 -16.1606 -4.86691 -1.77331 -16.1606
3839 1 -3.54483 -2.55148 -15.5644 -3.54483 -2.55148 18.4493
478 1 -1.73657 -1.95411 -16.694 -1.73657 -35.9678 -16.694
6889 1 -0.365774 -9.46616 -11.371 -0.365774 -9.46616 -11.371
16350 1 -16.1851 -0.804026 -16.5006 17.8287 -0.804026 17.5131
10814 1 -13.9159 -2.26792 -16.8925 20.0978 -2.26792 -16.8925
2366 1 -14.3222 -0.802073 -16.4461 -14.3222 -0.802073 17.5676
2155 1 -13.7545 -0.446618 -15.5458 -13.7545 -0.446618 18.4679
5524 1 -12.5942 -0.500183 -16.1203 -12.5942 -0.500183 -16.1203
15605 1 -3.9254 -16.5215 -12.6543 -3.9254 17.4922 21.3594
5678 1 -10.171 -0.237309 -15.4557 -10.171 -0.237309 -15.4557
5066 1 -11.1163 -0.62306 -16.3387 -11.1163 -0.62306 -16.3387
5665 1 -9.57471 -1.09548 -16.5399 -9.57471 -1.09548 -16.5399
2191 1 -7.47798 -1.1392 -15.3271 -7.47798 -1.1392 18.6866
12090 1 -6.67439 -1.04736 -16.5548 27.3393 -1.04736 17.4589
3795 1 -5.16513 -0.3817 -16.411 -5.16513 -0.3817 17.6027
6799 1 -4.03126 -0.734748 -16.2108 -4.03126 -0.734748 17.8029
12294 1 -2.09009 -0.411456 -16.3349 -2.09009 -0.411456 17.6788
12769 1 -3.09577 -1.55072 -16.4577 -3.09577 -1.55072 -16.4577
1472 1 -0.763088 -1.58322 -16.5175 -0.763088 -1.58322 -16.5175
9138 1 -0.0783753 -4.52026 -1.46115 -0.0783753 -4.52026 -1.46115
12326 1 -15.8058 -16.1331 -14.871 18.2079 -16.1331 19.1427
1625 1 -13.5571 -15.7251 -13.9898 -13.5571 -15.7251 -13.9898
9994 1 -11.2236 -16.0156 -14.4592 22.7901 -16.0156 -14.4592
10893 1 -0.105692 -8.39563 -16.7221 -0.105692 -8.39563 17.2916
5237 1 -9.30917 -16.9375 -13.981 -9.30917 17.0762 20.0327
2162 1 -8.88281 -15.813 -14.7629 -8.88281 -15.813 19.2508
15998 1 -7.02768 -16.5512 -15.2424 -7.02768 -16.5512 18.7713
1970 1 -7.43534 -15.4394 -15.3252 -7.43534 -15.4394 -15.3252
1461 1 -5.87085 -16.6328 -15.3715 -5.87085 -16.6328 -15.3715
8838 1 -3.93156 -16.0542 -13.8163 -3.93156 -16.0542 -13.8163
6199 1 -5.61187 -0.0230215 -9.76096 -5.61187 -0.0230215 -9.76096
14307 1 -4.52634 -16.149 -15.092 29.4874 17.8647 -15.092
13151 1 -3.00903 -16.1525 -14.7829 -3.00903 17.8612 -14.7829
7298 1 -0.940207 -16.8909 -15.3063 -0.940207 17.1228 18.7074
15673 1 -0.023948 -15.6931 -15.1503 -0.023948 18.3206 18.8634
5989 1 -15.5947 -14.5242 -15.5688 -15.5947 19.4896 -15.5688
2114 1 -14.8547 -14.7657 -14.7 -14.8547 -14.7657 19.3137
14619 1 -12.4955 -14.7631 -14.5036 21.5182 19.2506 -14.5036
4829 1 -10.1457 -14.2295 -14.7392 -10.1457 19.7842 -14.7392
7613 1 -9.97456 -15.2619 -14.1158 -9.97456 18.7518 19.898
10048 1 -6.64617 -13.872 -15.931 -6.64617 -13.872 -15.931
4926 1 -5.42043 -15.1308 -15.0289 -5.42043 18.8829 -15.0289
10084 1 -1.06219 -14.9459 -15.4402 -1.06219 -14.9459 -15.4402
5612 1 -2.11608 -14.6634 -14.1374 -2.11608 19.3503 -14.1374
8847 1 -14.4607 -13.2201 -14.4854 19.553 -13.2201 -14.4854
4814 1 -13.1885 -13.2374 -14.1668 -13.1885 20.7763 -14.1668
2933 1 -12.0259 -13.0908 -15.2072 -12.0259 -13.0908 18.8065
14994 1 -11.1779 -14.5002 -15.3343 22.8358 19.5135 18.6794
3967 1 -12.4293 -13.0331 -13.3822 -12.4293 -13.0331 20.6315
12208 1 -8.81719 -13.1677 -15.37 25.1965 -13.1677 18.6437
5482 1 -7.37383 -14.3823 -14.9939 -7.37383 19.6314 -14.9939
312 1 -6.9892 -12.7597 -15.2187 -6.9892 -12.7597 18.795
82 1 -6.5759 -13.0222 -13.898 -6.5759 -13.0222 -13.898
11234 1 -4.94452 -12.9359 -13.8293 -4.94452 -12.9359 20.1844
15533 1 -5.85466 -13.6555 -14.8725 -5.85466 -13.6555 -14.8725
5413 1 -3.18475 -14.1422 -14.6402 -3.18475 19.8715 -14.6402
15863 1 -2.54922 -13.2297 -15.5239 -2.54922 20.784 18.4898
7564 1 -1.72324 -13.8627 -14.9633 -1.72324 20.151 19.0505
14337 1 -0.112887 -14.1505 -15.8109 -0.112887 19.8632 18.2028
516 1 -0.725606 -12.6464 -14.888 -0.725606 -12.6464 -14.888
736 1 -15.5727 -13.4042 -15.2978 -15.5727 -13.4042 -15.2978
8938 1 -16.3214 -11.968 -15.0002 17.6923 -11.968 -15.0002
4146 1 -14.387 -11.1989 -15.5178 -14.387 22.8149 -15.5178
11950 1 -12.2094 -11.7079 -15.1321 21.8043 -11.7079 18.8816
7734 1 -9.66749 -12.4787 -15.8746 -9.66749 21.535 18.1391
12676 1 -9.5747 -12.6724 -14.356 24.439 21.3413 -14.356
3604 1 -8.23509 -12.2298 -15.5548 -8.23509 -12.2298 18.4589
6141 1 -7.11985 -11.2694 -15.1819 -7.11985 22.7443 18.8319
13343 1 -4.49419 -12.0155 -15.2354 -4.49419 21.9982 -15.2354
4030 1 -5.71565 -12.3893 -14.5124 -5.71565 -12.3893 19.5013
618 1 -3.59639 -12.6577 -14.9225 -3.59639 -12.6577 -14.9225
3884 1 -3.02665 -11.2332 -16.0617 -3.02665 -11.2332 17.952
2010 1 -1.6408 -12.5882 -15.8785 -1.6408 -12.5882 18.1352
2128 1 -2.26575 -12.1166 -14.9424 -2.26575 -12.1166 19.0713
14498 1 -0.366425 -11.3869 -14.7833 -0.366425 -11.3869 19.2304
3103 1 -14.7839 -11.9811 -14.7081 -14.7839 -11.9811 19.3056
5723 1 -14.6129 -9.81457 -15.0176 -14.6129 24.1991 -15.0176
921 1 -14.4945 -10.8558 -13.6556 -14.4945 -10.8558 -13.6556
1868 1 -12.5919 -10.3001 -14.8086 -12.5919 -10.3001 -14.8086
2243 1 -11.1107 -10.3018 -15.1925 -11.1107 -10.3018 18.8212
4413 1 -10.2127 -10.0494 -14.2896 -10.2127 23.9643 -14.2896
13170 1 -8.09096 -10.8085 -14.4501 -8.09096 23.2052 -14.4501
602 1 -5.48809 -11.101 -14.2583 -5.48809 -11.101 -14.2583
5116 1 -6.48933 -10.0646 -14.4151 -6.48933 -10.0646 -14.4151
4665 1 -4.94955 -10.3232 -15.2196 -4.94955 23.6905 -15.2196
11018 1 -3.90793 -11.15 -14.8722 -3.90793 -11.15 19.1415
8542 1 -1.83888 -11.0912 -14.6118 -1.83888 -11.0912 -14.6118
2121 1 -1.8465 -10.0841 -13.5318 -1.8465 -10.0841 -13.5318
508 1 -16.6967 -9.71521 -14.4186 -16.6967 -9.71521 19.5951
1348 1 -15.556 -8.58206 -15.3227 -15.556 -8.58206 -15.3227
6731 1 -11.5035 -9.47145 -15.9533 -11.5035 24.5423 18.0604
8965 1 -12.6979 -9.33107 -16.1091 21.3158 -9.33107 -16.1091
2381 1 -12.6478 -8.48571 -14.6435 -12.6478 -8.48571 19.3702
8072 1 -9.33007 -9.34275 -15.525 -9.33007 24.671 18.4887
2449 1 -9.03108 -10.8577 -15.5857 -9.03108 -10.8577 18.428
150 1 -8.18156 -9.45173 -14.239 -8.18156 -9.45173 -14.239
13515 1 -7.30772 -8.6298 -15.6742 26.706 -8.6298 -15.6742
9906 1 -7.12075 -8.96814 -14.3513 -7.12075 -8.96814 -14.3513
3125 1 -5.39061 -9.30567 -14.9928 -5.39061 -9.30567 19.0209
10615 1 -2.64778 -9.69234 -14.9774 -2.64778 -9.69234 19.0363
10137 1 -3.94975 -9.28789 -15.1294 -3.94975 -9.28789 -15.1294
4474 1 -1.2596 -9.63823 -14.9201 -1.2596 24.3755 -14.9201
3355 1 -0.615304 -9.29241 -13.9161 -0.615304 -9.29241 20.0976
898 1 -16.369 -7.26839 -15.1299 -16.369 -7.26839 -15.1299
8583 1 -13.361 -7.80056 -15.4233 -13.361 -7.80056 -15.4233
1070 1 -11.2772 -7.78888 -15.0445 -11.2772 -7.78888 -15.0445
15587 1 -10.4592 -8.67989 -16.0932 23.5545 -8.67989 17.9205
12124 1 -10.0545 -7.24874 -14.4511 -10.0545 -7.24874 -14.4511
4269 1 -11.2321 -9.25045 -14.795 -11.2321 -9.25045 -14.795
12672 1 -9.88865 -7.56531 -15.8565 24.1251 -7.56531 -15.8565
8711 1 -9.48083 -8.35829 -14.6292 -9.48083 -8.35829 -14.6292
1593 1 -7.74829 -7.78351 -14.6691 -7.74829 -7.78351 -14.6691
15403 1 -6.40481 -7.7746 -15.1579 -6.40481 -7.7746 18.8558
320 1 -5.70132 -8.41619 -14.4768 -5.70132 -8.41619 -14.4768
1831 1 -2.804 -7.81031 -13.9827 -2.804 -7.81031 -13.9827
350 1 -1.76375 -8.06363 -14.9753 -1.76375 -8.06363 -14.9753
3082 1 -0.769216 -7.60277 -14.7441 -0.769216 -7.60277 19.2696
4310 1 -15.2499 -6.95606 -15.5287 -15.2499 27.0576 -15.5287
11824 1 -13.4915 -6.84604 -13.4655 20.5223 -6.84604 20.5482
13964 1 -13.2047 -6.46738 -15.5199 -13.2047 -6.46738 -15.5199
8777 1 -12.3028 -6.67299 -14.1051 -12.3028 -6.67299 19.9086
2478 1 -10.8305 -6.13414 -15.375 -10.8305 -6.13414 18.6387
10453 1 -9.61976 -5.82586 -15.7154 24.394 -5.82586 18.2983
8225 1 -9.18578 -6.45058 -14.6701 -9.18578 -6.45058 -14.6701
9939 1 -7.86378 -6.02922 -13.971 -7.86378 -6.02922 -13.971
11112 1 -6.67974 -6.60972 -14.764 -6.67974 -6.60972 19.2497
7878 1 -4.73903 -7.76255 -15.201 -4.73903 26.2512 18.8127
5203 1 -5.77595 -6.63735 -14.0338 -39.7897 -6.63735 -14.0338
10992 1 -3.34008 -6.89345 -14.4262 -3.34008 -6.89345 19.5875
8968 1 -0.942854 -6.60641 -14.0424 -0.942854 -6.60641 -14.0424
16127 1 -1.18534 -4.95875 -14.828 -1.18534 -4.95875 19.1857
1707 1 -1.30376 -7.03883 -15.6167 -1.30376 -7.03883 -15.6167
1366 1 -15.6155 -5.81988 -14.3932 -15.6155 -5.81988 -14.3932
9281 1 -9.40647 -5.52062 -16.8502 24.6072 -5.52062 -16.8502
16163 1 -15.3304 -4.15145 -15.0811 18.6833 -4.15145 18.9326
528 1 -15.3829 -5.36661 -15.4001 -15.3829 -5.36661 -15.4001
2832 1 -13.9057 -5.78244 -14.3509 -13.9057 -5.78244 19.6628
3649 1 -13.6606 -5.10721 -15.4575 -13.6606 -5.10721 -15.4575
11830 1 -10.8709 -4.50328 -15.1461 23.1428 -4.50328 18.8676
12771 1 -6.98199 -5.48724 -15.5829 -6.98199 28.5265 -15.5829
12043 1 -5.6018 -5.51535 -15.397 -5.6018 -5.51535 18.6167
10875 1 -6.67577 -4.30322 -15.1826 27.3379 -4.30322 18.8311
9034 1 -4.56621 -5.5404 -14.2565 -4.56621 -5.5404 -14.2565
14071 1 -5.20517 -4.58587 -15.1622 -5.20517 29.4278 -15.1622
7029 1 -3.73551 -5.7829 -15.8039 -3.73551 28.2308 18.2098
11231 1 -3.68216 -4.56151 -15.5876 -3.68216 -4.56151 18.4261
11257 1 -3.22906 -4.80007 -14.2243 -3.22906 -4.80007 19.7894
2242 1 -2.23276 -5.73579 -15.6364 -2.23276 -5.73579 18.3773
9145 1 -2.14771 -4.29076 -14.687 -2.14771 -4.29076 -14.687
4062 1 -0.257693 -5.50541 -14.0591 -0.257693 -5.50541 -14.0591
12643 1 -0.0279601 -2.20782 -6.40418 -0.0279601 -2.20782 -6.40418
10119 1 -0.069613 -5.55597 -15.2731 -0.069613 -5.55597 -15.2731
1383 1 -15.325 -2.33028 -14.7741 -15.325 -2.33028 -14.7741
5891 1 -14.2194 -3.75763 -14.4953 -14.2194 -3.75763 -14.4953
5076 1 -12.8302 -2.63922 -14.8454 -12.8302 31.3745 -14.8454
11087 1 -12.9182 -4.47155 -14.1818 -12.9182 -4.47155 19.8319
5332 1 -11.984 -4.06617 -15.1162 -11.984 -4.06617 18.8975
10268 1 -11.5445 -4.12957 -13.6843 22.4692 -4.12957 -13.6843
7698 1 -10.1701 -3.14165 -14.5 -10.1701 -3.14165 19.5138
11751 1 -9.49036 -4.37335 -14.5518 24.5234 -4.37335 19.4619
5974 1 -8.21837 -4.06225 -15.0716 -8.21837 -4.06225 -15.0716
3147 1 -6.91603 -3.21565 -14.6088 -6.91603 -3.21565 19.4049
2026 1 -4.51582 -3.54433 -15.3825 -4.51582 -37.558 -15.3825
5317 1 -2.48821 -3.1281 -14.4634 -2.48821 -3.1281 -14.4634
3970 1 -0.861608 -3.65692 -14.4652 -0.861608 -3.65692 19.5485
953 1 -0.197221 -3.3363 -15.6849 -0.197221 -3.3363 -15.6849
5315 1 -16.5542 -1.52331 -15.2486 -16.5542 -1.52331 -15.2486
15571 1 -14.2933 -1.74765 -13.9711 19.7204 -1.74765 20.0426
3574 1 -11.6819 -2.38122 -14.8349 -11.6819 -2.38122 19.1789
5352 1 -9.6363 -2.00526 -14.4507 -9.6363 -2.00526 -14.4507
3805 1 -8.10984 -2.7603 -14.774 -8.10984 -2.7603 19.2397
6925 1 -9.01735 -1.81725 -15.6029 -9.01735 32.1965 18.4108
8871 1 -6.46993 -2.07832 -15.3208 27.5438 -2.07832 -15.3208
8515 1 -5.41698 -2.57155 -15.1883 28.5967 -2.57155 -15.1883
12024 1 -4.76258 -1.65258 -14.8574 -4.76258 -1.65258 19.1563
476 1 -3.71436 -2.67092 -14.5301 -3.71436 -2.67092 -14.5301
3835 1 -3.43467 -1.31084 -14.7444 -3.43467 -1.31084 19.2693
4790 1 -2.18001 -2.18545 -15.6045 -2.18001 -2.18545 -15.6045
1679 1 -2.41113 -1.8669 -14.0717 -2.41113 -1.8669 -14.0717
7710 1 -1.0851 -2.52649 -15.6869 -1.0851 -2.52649 18.3268
12753 1 -15.7756 -0.43322 -14.9833 18.2381 -0.43322 -14.9833
15392 1 -14.5289 -1.24323 -15.2798 19.4848 -1.24323 18.7339
9365 1 -13.3285 -1.99343 -15.8412 -13.3285 -1.99343 -15.8412
14911 1 -13.6659 -0.482321 -14.0001 20.3478 -0.482321 20.0136
2291 1 -11.7195 -0.747332 -15.2463 -11.7195 -0.747332 18.7675
14786 1 -12.3796 -0.338116 -14.1882 21.6341 -0.338116 19.8255
15471 1 -9.59697 -0.807494 -14.5473 24.4167 -0.807494 19.4665
14727 1 -8.11175 -1.25255 -14.1344 -8.11175 -1.25255 -14.1344
8063 1 -6.30169 -0.566833 -14.2138 -6.30169 -0.566833 19.8
9361 1 -6.06854 -0.985399 -15.7503 -6.06854 -0.985399 -15.7503
1474 1 -4.57257 -0.248372 -14.8734 -4.57257 -0.248372 -14.8734
4676 1 -3.16752 -0.596203 -15.4532 -3.16752 -0.596203 -15.4532
13560 1 -2.59429 -0.616093 -14.2499 -2.59429 -0.616093 -14.2499
2980 1 -1.09342 -1.56065 -14.5732 -1.09342 -1.56065 -14.5732
3541 1 -0.743507 0.0155806 -0.0184202 -0.743507 -33.9981 -0.0184202
6424 1 -0.668146 -0.496197 -15.852 -0.668146 -0.496197 18.1617
4322 1 -15.759 -16.1942 -13.1688 -15.759 17.8195 -13.1688
7981 1 -14.7037 -15.6963 -14.3556 -14.7037 18.3174 19.6581
295 1 -14.2639 -16.7893 -13.8953 -14.2639 -16.7893 -13.8953
12332 1 -13.1004 -17.0243 -13.0896 20.9133 -17.0243 20.9241
13193 1 -12.4715 -16.2514 -14.4884 21.5422 17.7623 -14.4884
11576 1 -0.137338 -6.99522 -7.14168 -0.137338 -6.99522 -7.14168
2200 1 -9.87558 -16.2324 -12.8592 -9.87558 -16.2324 21.1545
151 1 -0.339773 -10.4904 -1.18073 -0.339773 -10.4904 -1.18073
7143 1 -0.0363813 -1.3435 -0.941789 -0.0363813 -1.3435 -0.941789
804 1 -1.64756 -16.5479 -13.6462 -1.64756 -16.5479 -13.6462
9188 1 -0.593103 -16.8438 -13.7918 -0.593103 -16.8438 -13.7918
2724 1 -13.44 -7.7783 -16.798 -13.44 -7.7783 17.2157
8192 1 -16.4417 -15.4529 -13.0401 -16.4417 18.5608 20.9736
1739 1 -15.1028 -15.3731 -13.0368 -15.1028 -15.3731 -13.0368
16266 1 -13.5595 -14.392 -14.4657 20.4542 19.6217 -14.4657
2910 1 -13.9401 -14.619 -12.9454 -13.9401 -14.619 21.0683
7751 1 -11.1691 -14.8247 -14.3664 -11.1691 19.189 19.6474
6369 1 -12.1739 -15.7863 -13.0731 -12.1739 18.2274 20.9406
1193 1 -10.7694 -15.7841 -13.334 -10.7694 -15.7841 -13.334
7688 1 -10.8597 -14.7883 -12.4412 -10.8597 -14.7883 21.5725
1997 1 -9.09568 -15.5953 -13.4052 -9.09568 -15.5953 -13.4052
12340 1 -8.64051 -14.0835 -12.8236 -8.64051 -14.0835 21.1901
2298 1 -7.58393 -15.7487 -13.8632 -7.58393 -15.7487 20.1505
4718 1 -6.4401 -15.1028 -14.1958 -6.4401 -15.1028 -14.1958
1339 1 -4.90829 -14.067 -14.3956 -4.90829 -14.067 -14.3956
11513 1 -5.45518 -15.5962 -13.9985 -5.45518 -15.5962 20.0153
6016 1 -2.88488 -15.439 -13.5072 -2.88488 -15.439 -13.5072
5291 1 -4.08513 -13.9598 -13.1707 -4.08513 20.0539 -13.1707
11512 1 -1.26615 -15.9647 -14.7328 -1.26615 -15.9647 19.2809
9996 1 -0.472846 -15.3053 -13.9986 33.5409 -15.3053 -13.9986
1229 1 -1.01815 -15.2123 -12.9633 -1.01815 -15.2123 -12.9633
7800 1 -15.7706 -14.2441 -14.1104 -15.7706 19.7696 19.9033
15942 1 -15.3975 -13.4994 -13.4907 18.6162 20.5143 -13.4907
1514 1 -13.0365 -14.0744 -13.2175 -13.0365 -14.0744 -13.2175
8535 1 -11.6537 -13.8029 -13.3127 -11.6537 -13.8029 -13.3127
6711 1 -10.7129 -13.1361 -13.7735 -10.7129 20.8776 20.2402
4321 1 -9.71757 -14.1375 -13.6423 -9.71757 -14.1375 -13.6423
14809 1 -8.26877 -12.6448 -14.3439 -8.26877 -12.6448 -14.3439
9102 1 -8.02376 -14.0607 -13.8779 -8.02376 -14.0607 -13.8779
3070 1 -8.07053 -12.7948 -12.5758 -8.07053 -12.7948 21.4379
321 1 -5.99059 -14.2089 -13.5867 -5.99059 -14.2089 -13.5867
12783 1 -2.50447 -12.8969 -14.1618 -2.50447 21.1168 -14.1618
2474 1 -2.52286 -13.805 -12.6748 -2.52286 -13.805 21.3389
10628 1 -1.26698 -14.1622 -12.7827 -1.26698 -14.1622 21.231
5707 1 -0.562834 -14.0105 -14.306 -0.562834 20.0032 -14.306
4276 1 -16.8914 -11.7004 -13.3416 -16.8914 22.3133 -13.3416
7695 1 -15.9642 -12.2985 -13.4682 -15.9642 21.7152 20.5455
1603 1 -14.4877 -12.08 -13.4469 -14.4877 -12.08 -13.4469
3471 1 -13.6294 -12.0425 -14.7085 -13.6294 -12.0425 19.3052
305 1 -13.8876 -13.3635 -12.836 -13.8876 -13.3635 -12.836
8960 1 -9.43059 -11.4721 -14.836 24.5831 -11.4721 -14.836
1663 1 -11.0857 -12.0812 -14.5955 -11.0857 -12.0812 -14.5955
7956 1 -10.3174 -12.0152 -13.2029 -10.3174 21.9986 -13.2029
12886 1 -9.20587 -12.8013 -13.1022 -9.20587 21.2124 -13.1022
1798 1 -6.84896 -12.0991 -13.5021 -6.84896 -12.0991 -13.5021
352 1 -8.07682 -11.6811 -13.8434 -8.07682 -11.6811 -13.8434
7289 1 -5.64985 -12.2521 -13.4303 -5.64985 21.7617 20.5834
839 1 -3.54861 -12.7847 -13.6093 -3.54861 -12.7847 -13.6093
6512 1 -3.58311 -11.1093 -12.6953 -3.58311 22.9044 21.3184
3882 1 -1.80766 -12.4264 -12.8747 -1.80766 -12.4264 -12.8747
7166 1 -0.628433 -11.8737 -13.7087 -34.6421 22.14 20.305
11013 1 -15.5455 -10.4041 -14.2494 18.4682 -10.4041 19.7644
12083 1 -16.8369 -10.797 -14.2425 17.1768 -10.797 -14.2425
888 1 -16.1055 -10.7214 -12.7444 -16.1055 -10.7214 -12.7444
5086 1 -14.8287 -10.0783 -12.6046 -14.8287 23.9354 21.4091
14050 1 -12.8458 -10.403 -12.9082 21.1679 23.6107 21.1055
10243 1 -12.7569 -11.6109 -13.7124 -12.7569 -11.6109 -13.7124
8527 1 -11.2161 -10.8869 -13.9281 22.7976 -10.8869 -13.9281
9636 1 -9.74654 -10.875 -13.2121 -9.74654 -10.875 -13.2121
10702 1 -9.13997 -10.502 -14.0278 -9.13997 -10.502 19.9859
1109 1 -5.8745 -9.37066 -13.2562 -5.8745 -9.37066 -13.2562
15986 1 -6.50226 -10.9381 -13.5455 -6.50226 -10.9381 20.4682
8214 1 -4.30493 -11.5736 -13.7904 -4.30493 22.4402 20.2233
6318 1 -3.29807 -10.4391 -13.7497 -3.29807 -10.4391 20.264
10853 1 -2.14794 -11.2029 -13.0425 -2.14794 -11.2029 -13.0425
16370 1 -0.551785 -10.0907 -12.8752 -0.551785 23.923 21.1385
11284 1 -13.2627 -0.379771 -7.8307 -13.2627 -0.379771 -7.8307
3803 1 -14.1671 -10.9125 -0.176817 -14.1671 -10.9125 -0.176817
3951 1 -14.7682 -9.08144 -13.9977 -14.7682 -9.08144 20.016
15695 1 -14.4815 -8.5813 -12.6999 19.5322 25.4324 21.3138
4316 1 -13.7 -8.29578 -14.1594 -13.7 25.7179 -14.1594
12058 1 -13.8425 -9.8996 -13.6877 20.1712 -9.8996 20.326
5597 1 -12.6141 -9.72669 -13.8614 -12.6141 24.287 -13.8614
3263 1 -11.4127 -9.73997 -13.6437 -11.4127 -9.73997 20.37
3748 1 -10.4386 -8.27989 -13.5594 -10.4386 -8.27989 20.4543
16335 1 -10.1075 -9.2111 -12.6382 23.9062 24.8026 21.3756
14101 1 -9.4469 -9.25385 -13.7927 -9.4469 24.7599 -13.7927
12785 1 -8.6279 -9.77817 -12.8072 -8.6279 -9.77817 -12.8072
791 1 -8.63902 -8.21664 -13.4725 -8.63902 -8.21664 -13.4725
2022 1 -7.45253 -9.57142 -13.5154 -7.45253 -9.57142 -13.5154
8340 1 -6.9413 -8.36338 -13.2919 -6.9413 -8.36338 -13.2919
10790 1 -3.84583 -9.17271 -13.8656 -3.84583 -9.17271 20.1481
15036 1 -3.83759 -9.61391 -12.5943 -3.83759 -9.61391 21.4194
9990 1 -2.13646 -9.00136 -14.0834 -2.13646 -9.00136 -14.0834
13435 1 -1.47943 -9.12361 -12.873 -1.47943 24.8901 -12.873
806 1 -16.8561 -8.16196 -14.3931 -16.8561 -8.16196 -14.3931
12175 1 -16.2216 -6.77479 -13.9262 17.7921 -6.77479 20.0875
189 1 -14.6406 -7.78634 -14.9195 -14.6406 -7.78634 -14.9195
2761 1 -15.2719 -7.27143 -13.1809 -15.2719 -7.27143 -13.1809
1201 1 -14.9488 -7.37688 -11.9751 -14.9488 -7.37688 -11.9751
15720 1 -12.6145 -7.96255 -13.5471 21.3993 -7.96255 20.4666
1145 1 -11.5175 -7.68645 -13.9905 -11.5175 -7.68645 -13.9905
9089 1 -9.68357 -7.11614 -13.24 -9.68357 -7.11614 -13.24
1012 1 -7.31682 -7.27278 -13.7344 -7.31682 -7.27278 -13.7344
5756 1 -4.76856 -8.66236 -13.8143 -4.76856 25.3514 20.1994
452 1 -5.18587 -7.37542 -13.1398 -5.18587 -7.37542 -13.1398
1727 1 -4.06788 -7.65366 -12.6747 -4.06788 -7.65366 -12.6747
10354 1 -2.89242 -7.18083 -12.9857 31.1213 -7.18083 -12.9857
5143 1 -1.66629 -7.50731 -13.3914 -1.66629 -7.50731 -13.3914
9579 1 -0.487138 -7.93787 -13.5953 -0.487138 -7.93787 -13.5953
7783 1 -16.2862 -6.56983 -12.5563 -16.2862 27.4439 -12.5563
7447 1 -14.7815 -5.56339 -13.5278 -14.7815 -5.56339 20.4859
11955 1 -13.2977 -5.79186 -13.1484 -13.2977 -5.79186 20.8653
12483 1 -10.2825 -6.13624 -13.5733 -10.2825 -6.13624 -13.5733
7035 1 -8.59984 -7.14688 -13.5905 -8.59984 26.8668 20.4232
9330 1 -8.41872 -5.7666 -12.9674 25.595 -5.7666 -12.9674
8390 1 -6.21953 -6.08947 -12.7057 -6.21953 -6.08947 -12.7057
2075 1 -4.10776 -6.72806 -13.7342 -4.10776 -6.72806 20.2795
3114 1 -1.87014 -6.09666 -14.0679 -1.87014 -6.09666 -14.0679
1732 1 -0.75414 -6.21006 -12.5657 -0.75414 -6.21006 -12.5657
9854 1 -16.4866 -4.7449 -14.3065 17.5271 -4.7449 -14.3065
13312 1 -15.4107 -4.52481 -13.5118 18.603 -4.52481 -13.5118
224 1 -12.7491 -5.48369 -14.3354 -12.7491 -5.48369 -14.3354
4849 1 -11.4524 -5.52155 -13.817 -11.4524 28.4922 20.1967
622 1 -10.4432 -4.34798 -13.8548 -10.4432 -4.34798 -13.8548
9544 1 -9.04193 -5.536 -14.1197 -9.04193 -5.536 -14.1197
2138 1 -8.89045 -4.8209 -12.6198 -8.89045 -4.8209 21.3939
9593 1 -8.01378 -4.67914 -13.5391 25.9999 -4.67914 -13.5391
8384 1 -6.38132 -5.57692 -14.3737 -6.38132 -5.57692 -14.3737
8984 1 -5.32988 -5.03993 -13.1607 -5.32988 -5.03993 -13.1607
7702 1 -3.71175 -5.61985 -13.2104 -3.71175 -5.61985 20.8033
3078 1 -2.68886 -4.58602 -13.2788 -2.68886 -4.58602 -13.2788
1741 1 -4.38715 -4.29444 -14.2263 -4.38715 -38.3082 -14.2263
1606 1 -1.60386 -5.04662 -13.1971 -1.60386 -5.04662 -13.1971
9620 1 -16.4009 -3.58744 -13.5396 17.6128 -3.58744 -13.5396
4904 1 -15.2586 -3.00666 -13.1543 -15.2586 -3.00666 -13.1543
5137 1 -13.5222 -4.40287 -13.0706 -13.5222 -4.40287 -13.0706
4753 1 -12.1661 -4.0885 -12.7402 -12.1661 -4.0885 -12.7402
1812 1 -10.6267 -3.69453 -12.6846 -10.6267 -3.69453 -12.6846
10506 1 -8.89161 -3.63878 -13.5814 25.1221 -3.63878 20.4323
5220 1 -7.62754 -3.19685 -13.482 -7.62754 -3.19685 -13.482
762 1 -5.88994 -3.51615 -13.6544 -5.88994 -3.51615 -13.6544
8459 1 -6.50913 -4.4161 -13.6926 -6.50913 -4.4161 -13.6926
4386 1 -4.40598 -3.13511 -13.7652 -4.40598 -3.13511 -13.7652