ITEM: TIMESTEP
5500
ITEM: NUMBER OF ATOMS
16384
ITEM: BOX BOUNDS pp pp pp
-1.7006855707231768e+01 1.7006855707231768e+01
-1.7006855707231768e+01 1.7006855707231768e+01
-1.7006855707231768e+01 1.7006855707231768e+01
ITEM: ATOMS id type x y z xu yu zu
1480 1 -9.91213 -0.415233 -9.67315 -9.91213 -0.415233 -9.67315
5012 1 -16.7443 -4.28649 -0.441841 -16.7443 -4.28649 -0.441841
11551 1 -14.9999 -16.172 -16.6954 19.0138 17.8417 17.3183
5786 1 -13.9996 -15.4882 -15.9968 -13.9996 18.5255 -15.9968
14994 1 -12.509 -15.5716 -15.7656 21.5047 18.4421 18.2482
2153 1 -8.38062 -15.428 -16.7253 -8.38062 -15.428 17.2884
3899 1 -7.38295 -16.5918 -16.473 -7.38295 -16.5918 17.5407
14307 1 -5.91461 -15.7835 -15.4502 28.0991 18.2302 -15.4502
7428 1 -6.07823 -16.2083 -16.5662 -6.07823 17.8054 17.4475
13961 1 -4.61326 -16.525 -16.8957 -4.61326 17.4887 -16.8957
2039 1 -0.824246 -5.53009 -0.275167 -0.824246 -5.53009 -0.275167
15814 1 -4.17739 -15.6389 -16.3123 -4.17739 18.3748 17.7014
6891 1 -4.55218 -16.8965 -3.9986 -4.55218 17.1173 -3.9986
10502 1 -0.819998 -16.3438 -15.9502 33.1937 -16.3438 18.0635
15926 1 -16.211 -15.1828 -15.3788 17.8027 18.8309 18.6349
5989 1 -15.4815 -14.9349 -16.7777 -15.4815 19.0788 -16.7777
6866 1 -11.7992 -14.5502 -16.0863 -11.7992 19.4635 17.9274
6272 1 -11.6155 -15.6321 -16.8285 -11.6155 18.3816 17.1852
4484 1 -10.1931 -15.6206 -16.6762 -10.1931 18.3931 -16.6762
4829 1 -10.9061 -15.238 -15.3635 -10.9061 18.7757 -15.3635
13995 1 -8.7445 -13.847 -16.5742 -8.7445 20.1668 -16.5742
4718 1 -6.77798 -14.8649 -16.0308 -6.77798 -14.8649 -16.0308
12056 1 -6.14686 -14.9263 -16.8759 -6.14686 19.0874 17.1379
13450 1 -4.11067 -0.0980825 -2.99674 -4.11067 -0.0980825 -2.99674
3934 1 -4.20249 -14.4566 -16.5952 -4.20249 -14.4566 17.4185
8332 1 -2.74854 -14.2608 -16.3457 -2.74854 -14.2608 -16.3457
10478 1 -1.93049 -15.6496 -15.9345 -1.93049 -15.6496 18.0792
10660 1 -1.02417 -1.94198 -0.158731 -1.02417 -1.94198 -0.158731
2376 1 -0.0223396 -14.7169 -16.7125 -0.0223396 -14.7169 17.3012
15344 1 -15.7779 -13.735 -15.7981 18.2358 20.2787 18.2156
8453 1 -14.6511 -13.5162 -16.406 19.3626 -13.5162 -16.406
2114 1 -13.9546 -13.871 -15.3775 -13.9546 -13.871 18.6363
3531 1 -12.0732 -12.8746 -15.7398 -12.0732 -12.8746 18.274
1281 1 -8.80676 -12.8482 -15.7769 -8.80676 -12.8482 -15.7769
10862 1 -10.5543 -12.84 -16.0833 23.4595 -12.84 17.9304
15533 1 -7.32201 -13.4453 -16.1529 -7.32201 -13.4453 -16.1529
1048 1 -5.92435 -13.4289 -15.9939 -5.92435 -13.4289 -15.9939
11234 1 -4.72563 -13.0156 -16.1013 -4.72563 -13.0156 17.9124
1795 1 -3.14259 -13.1969 -15.9942 -3.14259 -13.1969 -15.9942
989 1 -1.8891 -12.2978 -16.7965 -1.8891 -12.2978 -16.7965
5707 1 -1.12757 -14.3061 -16.6538 -1.12757 19.7076 -16.6538
1065 1 -1.20564 -12.7153 -15.95 -1.20564 -12.7153 -15.95
8635 1 -16.7397 -10.7056 -16.4796 17.274 -10.7056 -16.4796
228 1 -15.6547 -12.244 -15.8811 -15.6547 -12.244 -15.8811
2449 1 -7.73913 -11.2474 -16.5956 -7.73913 -11.2474 17.4181
11940 1 -13.0705 -12.4314 -15.6784 20.9432 -12.4314 18.3353
4146 1 -11.9649 -11.5211 -16.2545 -11.9649 22.4926 -16.2545
14809 1 -9.13664 -11.6551 -16.3622 -9.13664 -11.6551 -16.3622
12208 1 -7.08465 -11.2199 -15.7096 26.9291 -11.2199 18.3041
3906 1 -6.26341 -11.9736 -16.259 -6.26341 -11.9736 17.7547
14247 1 -12.5895 -13.854 -16.6989 -12.5895 20.1597 -16.6989
11401 1 -4.60136 -11.6157 -15.5111 -4.60136 -11.6157 18.5026
13970 1 -3.93884 -12.2578 -16.5086 -3.93884 -12.2578 -16.5086
618 1 -2.71096 -11.8059 -15.4376 -2.71096 -11.8059 -15.4376
2128 1 -1.71755 -11.0822 -16.2702 -1.71755 -11.0822 17.7435
6397 1 -0.653194 -11.7241 -15.9319 -0.653194 22.2896 18.0819
730 1 -15.4687 -11.216 -16.703 -15.4687 -11.216 -16.703
888 1 -14.3966 -11.6037 -15.3373 -14.3966 -11.6037 -15.3373
12058 1 -14.4539 -10.1288 -16.0394 19.5598 -10.1288 17.9743
9359 1 -13.8282 -11.7105 -16.5149 20.1855 -11.7105 -16.5149
2868 1 -13.1408 -10.8714 -15.5018 -13.1408 -10.8714 18.5119
8937 1 -10.8572 -10.9774 -15.9794 23.1565 -10.9774 -15.9794
6129 1 -7.47909 -10.0418 -16.2252 -7.47909 -10.0418 17.7885
10664 1 -6.17815 -10.4558 -16.2101 27.8356 -10.4558 17.8036
271 1 -4.89153 -10.8653 -16.3213 -4.89153 -10.8653 -16.3213
9347 1 -3.59652 -10.8397 -16.6644 30.4172 -10.8397 -16.6644
14173 1 -4.96551 -0.14686 -4.8244 29.0482 -0.14686 -4.8244
3816 1 -2.62671 -10.4039 -15.4053 -2.62671 -10.4039 18.6084
1348 1 -16.0793 -9.17192 -16.1633 -16.0793 -9.17192 -16.1633
1378 1 -14.6594 -8.83629 -16.0801 -14.6594 -8.83629 -16.0801
13199 1 -14.159 -9.61574 -14.4391 -14.159 24.398 -14.4391
8583 1 -12.4266 -9.59778 -16.6778 -12.4266 -9.59778 -16.6778
376 1 -11.1274 -9.96135 -16.9012 -11.1274 -9.96135 -16.9012
9592 1 -9.04549 -9.76765 -16.993 -9.04549 -9.76765 -16.993
4269 1 -10.2187 -9.12463 -15.453 -10.2187 -9.12463 -15.453
13612 1 -8.24555 -8.84898 -16.2424 25.7682 -8.84898 -16.2424
9170 1 -2.75817 -16.9566 -2.67943 -2.75817 -16.9566 -2.67943
2490 1 -6.71423 -9.63408 -15.3102 -6.71423 -9.63408 18.7035
2063 1 -5.70184 -9.23552 -16.5434 -5.70184 -9.23552 17.4703
2393 1 -3.1199 -9.13068 -16.4375 -3.1199 -9.13068 -16.4375
3995 1 -1.64654 -8.80944 -16.0752 -1.64654 -8.80944 17.9385
11063 1 -1.41834 -9.9937 -16.1158 -1.41834 -9.9937 17.8979
11361 1 -4.79173 -1.4713 -1.63625 -4.79173 -1.4713 -1.63625
3082 1 -0.337525 -8.9859 -15.7904 -0.337525 -8.9859 18.2233
15778 1 -14.0109 -7.26811 -16.1738 20.0028 26.7456 17.8399
5723 1 -15.6035 -8.15925 -16.543 -15.6035 25.8545 -16.543
7013 1 -12.4008 -8.01412 -16.8185 -12.4008 25.9996 17.1952
702 1 -11.416 -7.87274 -16.0635 -11.416 -7.87274 -16.0635
15414 1 -9.6456 -8.13037 -16.7257 24.3681 -8.13037 17.288
3450 1 -17.0047 -8.76855 -16.7278 -17.0047 -8.76855 17.2859
1321 1 -5.94997 -8.36395 -15.6793 -5.94997 -8.36395 -15.6793
1666 1 -4.55739 -9.0829 -15.8443 -4.55739 -9.0829 -15.8443
7029 1 -4.92601 -7.35265 -15.6361 -4.92601 26.6611 18.3776
883 1 -16.8193 -0.1408 -8.27963 -16.8193 -0.1408 -8.27963
16127 1 -3.92866 -7.88928 -16.4784 -3.92866 -7.88928 17.5353
15421 1 -1.0513 -7.52437 -15.6413 -1.0513 26.4893 -15.6413
4310 1 -15.7371 -6.84185 -16.2942 -15.7371 27.1719 -16.2942
1366 1 -16.7428 -7.46963 -16.946 -16.7428 -7.46963 -16.946
12128 1 -14.6499 -6.32711 -15.5874 -14.6499 -6.32711 -15.5874
9267 1 -13.5724 -6.35587 -16.7612 20.4414 -6.35587 -16.7612
8388 1 -11.8923 -5.91216 -16.3857 -11.8923 -5.91216 -16.3857
704 1 -10.6856 -6.73977 -16.4076 -10.6856 -6.73977 -16.4076
14117 1 -9.0815 -7.43971 -15.9164 -9.0815 -7.43971 -15.9164
12459 1 -6.84216 -6.41542 -16.7903 -6.84216 27.5983 -16.7903
12043 1 -6.07094 -6.19339 -15.5579 -6.07094 -6.19339 18.4558
3547 1 -5.89294 -7.23934 -16.9516 -5.89294 -7.23934 17.0621
10992 1 -4.7006 -6.65998 -16.7867 -4.7006 -6.65998 17.227
7837 1 -3.16098 -5.94006 -15.4273 -3.16098 -5.94006 18.5865
13965 1 -16.8843 -12.1189 -4.10304 17.1294 21.8948 -4.10304
15213 1 -2.56663 -6.75158 -16.1197 -2.56663 27.2621 17.894
1707 1 -0.440218 -5.61507 -15.5646 -0.440218 -5.61507 -15.5646
2254 1 -16.8607 -4.45045 -16.212 -16.8607 -4.45045 17.8017
528 1 -15.8885 -5.26177 -16.3249 -15.8885 -5.26177 -16.3249
13964 1 -13.4086 -5.20194 -16.5553 -13.4086 -5.20194 -16.5553
5891 1 -14.3898 -5.18018 -15.9683 -14.3898 -5.18018 -15.9683
570 1 -12.0975 -5.10918 -15.5761 -12.0975 -5.10918 -15.5761
84 1 -11.1774 -4.54132 -16.7092 -11.1774 -4.54132 -16.7092
11930 1 -10.571 -5.68068 -15.9932 23.4427 -5.68068 18.0205
14187 1 -8.93224 -4.66327 -16.3959 25.0815 -4.66327 -16.3959
122 1 -7.15083 -4.55389 -15.31 -7.15083 -4.55389 -15.31
11415 1 -7.86631 -4.82376 -16.6312 26.1474 -4.82376 17.3825
1020 1 -6.74435 -5.07962 -16.61 -6.74435 -5.07962 -16.61
2242 1 -4.1708 -5.09068 -16.2004 -4.1708 -5.09068 17.8133
1606 1 -2.38903 -4.68951 -15.8703 -2.38903 -4.68951 -15.8703
12429 1 -1.1172 -4.87439 -16.7297 -1.1172 29.1393 -16.7297
4438 1 -11.9509 -16.9216 -13.2727 -11.9509 17.0921 -13.2727
4519 1 -6.32005 -16.8197 -14.0756 -6.32005 17.194 -14.0756
865 1 -14.8966 -4.05708 -15.6679 -14.8966 -4.05708 -15.6679
2288 1 -13.7428 -3.943 -16.4749 -13.7428 -3.943 17.5388
2906 1 -11.563 -3.4536 -16.3297 -11.563 -3.4536 17.6841
15042 1 -10.5186 -3.99175 -15.7991 23.4951 -3.99175 18.2146
10875 1 -9.48397 -3.41589 -16.3248 24.5297 -3.41589 17.689
5081 1 -7.86217 -3.65732 -16.3253 -7.86217 -3.65732 -16.3253
762 1 -6.14656 -3.88212 -16.0339 -6.14656 -3.88212 -16.0339
9145 1 -4.85575 -3.68745 -16.2393 -4.85575 -3.68745 -16.2393
1525 1 -6.53033 -0.0260587 -2.88374 -6.53033 -0.0260587 -2.88374
2026 1 -4.20247 -2.6038 -15.9917 -4.20247 -36.6175 -15.9917
11153 1 -10.7605 -2.81595 -16.9059 23.2532 -2.81595 17.1078
11231 1 -2.44262 -3.56716 -15.2667 -2.44262 -3.56716 18.747
9082 1 -1.34129 -3.5051 -16.2701 -1.34129 -3.5051 -16.2701
2252 1 -0.155285 -3.31574 -16.183 -0.155285 -3.31574 17.8307
1383 1 -15.5306 -2.82266 -16.6277 -15.5306 -2.82266 -16.6277
15754 1 -14.004 -2.14276 -16.5274 20.0097 -2.14276 17.4863
5131 1 -12.9742 -3.29471 -15.3438 -12.9742 -3.29471 -15.3438
10814 1 -12.9119 -2.29557 -16.1673 21.1018 -2.29557 -16.1673
5524 1 -10.9812 -1.58563 -16.7948 -10.9812 -1.58563 -16.7948
5665 1 -9.71248 -2.17458 -16.4379 -9.71248 -2.17458 -16.4379
3495 1 -9.42535 -1.29293 -15.8383 -9.42535 -1.29293 18.1754
1487 1 -8.44035 -2.29719 -16.7054 -8.44035 -2.29719 -16.7054
12090 1 -5.89779 -1.53128 -16.0481 28.1159 -1.53128 17.9657
8459 1 -7.10387 -2.69364 -16.8198 -7.10387 -2.69364 -16.8198
7492 1 -4.9918 -1.7492 -16.6301 -4.9918 -1.7492 17.3837
3758 1 -12.1728 -16.9717 -3.09487 -12.1728 -16.9717 -3.09487
10407 1 -2.45799 -2.66277 -16.2581 -2.45799 -2.66277 -16.2581
12024 1 -2.34261 -2.23037 -15.0113 -2.34261 -2.23037 19.0024
953 1 -1.12256 -1.96775 -16.1551 -1.12256 -1.96775 -16.1551
5315 1 -15.121 -0.80252 -15.969 -15.121 -0.80252 -15.969
11319 1 -13.3849 -10.3971 -16.7826 20.6288 -10.3971 17.2311
3051 1 -13.3903 -0.974853 -16.4504 -13.3903 -0.974853 17.5634
8427 1 -12.0992 -0.92357 -15.7072 21.9145 -0.92357 -15.7072
2291 1 -11.1288 -0.110212 -16.6702 -11.1288 -0.110212 17.3435
11923 1 -0.585792 -8.23025 -15.0098 -0.585792 -8.23025 -15.0098
9130 1 -12.177 -16.9115 -10.9413 -12.177 -16.9115 -10.9413
16358 1 -8.94683 -0.0934603 -16.0392 25.0669 -0.0934603 17.9745
6799 1 -6.30272 -0.322476 -16.5559 -6.30272 -0.322476 17.4578
13096 1 -4.96711 -0.232448 -16.1159 -4.96711 -0.232448 -16.1159
4790 1 -2.93854 -0.363228 -16.3309 -2.93854 -0.363228 -16.3309
3835 1 -3.88365 -0.738601 -15.4116 -3.88365 -0.738601 18.6021
12294 1 -1.2503 -0.6053 -16.0749 -1.2503 -0.6053 17.9388
9314 1 -3.31484 -4.42643 -16.146 -3.31484 -4.42643 -16.146
12326 1 -15.7625 -16.4568 -14.832 18.2512 -16.4568 19.1817
6256 1 -14.591 -16.7739 -15.3969 -14.591 17.2398 18.6168
6369 1 -12.3892 -16.1205 -14.4375 -12.3892 17.8932 19.5762
5767 1 -11.2556 -16.4823 -16.2998 -11.2556 17.5314 -16.2998
3725 1 -10.8232 -16.5351 -14.7099 -10.8232 -16.5351 19.3038
15997 1 -9.68091 -16.0054 -15.4646 -9.68091 18.0083 18.5491
7613 1 -9.65239 -16.1924 -14.3562 -9.65239 17.8213 19.6575
1970 1 -6.73266 -15.6691 -14.6143 -6.73266 -15.6691 -14.6143
2298 1 -8.03888 -16.4949 -14.5527 -8.03888 -16.4949 19.461
910 1 -4.81397 -14.7611 -15.4059 -4.81397 -14.7611 -15.4059
4680 1 -4.73382 -16.0051 -13.9883 -4.73382 18.0086 -13.9883
12844 1 -16.9888 -14.7852 -16.5583 17.025 19.2285 -16.5583
1852 1 -3.34121 -16.2957 -15.6223 -3.34121 -16.2957 -15.6223
804 1 -2.15953 -15.878 -14.9384 -2.15953 -15.878 -14.9384
1229 1 -0.589826 -16.2137 -14.2758 -0.589826 -16.2137 -14.2758
7981 1 -14.8397 -15.1492 -15.422 -14.8397 18.8645 18.5917
8786 1 -14.2993 -15.3699 -14.2886 19.7144 -15.3699 -14.2886
6463 1 -12.7921 -14.6362 -15.2996 -12.7921 19.3775 18.7141
9994 1 -11.6831 -15.3853 -13.9169 22.3306 -15.3853 -13.9169
2162 1 -9.00501 -15.1476 -15.9412 -9.00501 -15.1476 18.0725
7751 1 -10.3899 -15.2476 -14.2362 -10.3899 18.7661 19.7775
9102 1 -8.2968 -14.7773 -14.777 -8.2968 -14.7773 -14.777
10048 1 -6.27871 -14.5674 -14.461 -6.27871 -14.5674 -14.461
12118 1 -5.19826 -14.825 -14.3704 -5.19826 -14.825 -14.3704
8838 1 -3.4795 -16.0306 -14.5846 -3.4795 -16.0306 -14.5846
5291 1 -3.64631 -14.4007 -15.2453 -3.64631 19.613 -15.2453
11359 1 -2.64817 -14.4477 -14.0732 -2.64817 -14.4477 19.9405
10788 1 -2.07316 -14.3965 -15.4739 31.9405 -14.3965 18.5398
10084 1 -0.346849 -15.4505 -15.5219 -0.346849 -15.4505 -15.5219
9239 1 -15.7451 -12.9859 -14.7986 18.2686 21.0278 -14.7986
1838 1 -16.8023 -13.9276 -14.6504 -16.8023 -13.9276 -14.6504
7800 1 -14.9217 -13.7251 -14.6878 -14.9217 20.2887 19.3259
2238 1 -12.0708 -13.1723 -14.5827 -12.0708 -13.1723 19.431
14619 1 -11.0711 -14.1607 -14.0441 22.9426 19.853 -14.0441
12676 1 -11.055 -13.7438 -15.5243 22.9587 20.2699 -15.5243
12072 1 -10.3639 -13.2753 -14.7886 23.6498 -13.2753 19.2251
7734 1 -9.78699 -14.3419 -15.0793 -9.78699 19.6718 18.9344
3745 1 -8.85572 -13.7046 -14.3653 -8.85572 -13.7046 19.6485
5482 1 -7.49511 -13.8715 -14.9977 -7.49511 20.1422 -14.9977
312 1 -7.81369 -12.8204 -15.2257 -7.81369 -12.8204 18.788
12295 1 -5.47346 -13.973 -15.0687 -5.47346 -13.973 18.945
839 1 -4.49559 -13.0631 -14.7761 -4.49559 -13.0631 -14.7761
7564 1 -2.31088 -12.9963 -14.8774 -2.31088 21.0175 19.1363
254 1 -1.10121 -13.9848 -15.1327 -1.10121 -13.9848 -15.1327
1603 1 -14.0528 -12.9977 -14.8185 -14.0528 -12.9977 -14.8185
736 1 -13.1002 -11.82 -14.6495 -13.1002 -11.82 -14.6495
4814 1 -11.6812 -11.7421 -15.2953 -11.6812 22.2716 -15.2953
11950 1 -10.6154 -12.058 -14.4796 23.3983 -12.058 19.5341
8072 1 -9.59621 -11.6705 -15.228 -9.59621 22.3432 18.7857
4030 1 -6.43661 -12.7563 -14.6855 -6.43661 -12.7563 19.3282
13343 1 -5.60043 -11.9987 -14.863 -5.60043 22.015 -14.863
8214 1 -4.27493 -12.4437 -13.3487 -4.27493 21.57 20.665
516 1 -1.99408 -11.5017 -14.6576 -1.99408 -11.5017 -14.6576
10844 1 -1.10608 -12.492 -14.6627 -1.10608 -12.492 19.351
4276 1 -15.5215 -10.9577 -15.5389 -15.5215 23.0561 -15.5389
2939 1 -14.9101 -16.7976 -14.0093 -14.9101 -16.7976 20.0044
4692 1 -16.9174 -10.9689 -14.2006 -16.9174 -10.9689 -14.2006
10243 1 -15.1436 -9.5712 -15.018 -15.1436 -9.5712 -15.018
8965 1 -11.954 -10.5475 -15.2104 22.0598 -10.5475 -15.2104
10702 1 -11.3534 -10.6514 -14.0795 -11.3534 -10.6514 19.9342
6141 1 -8.6819 -10.3959 -15.3698 -8.6819 23.6178 18.6439
9906 1 -9.80885 -10.0041 -15.1568 -9.80885 -10.0041 -15.1568
3604 1 -8.28617 -10.6934 -13.6882 -8.28617 -10.6934 20.3255
15352 1 -7.68273 -10.1647 -14.3758 26.331 -10.1647 19.6379
5116 1 -6.48126 -10.6085 -14.9192 -6.48126 -10.6085 -14.9192
602 1 -4.36514 -10.0883 -14.3561 -4.36514 -10.0883 -14.3561
10137 1 -4.01952 -11.1583 -14.7002 -4.01952 -11.1583 -14.7002
11018 1 -1.85095 -9.51455 -14.629 -1.85095 -9.51455 19.3847
9355 1 -0.585984 -10.5973 -15.1768 -0.585984 -10.5973 18.8369
508 1 -16.6692 -9.21156 -13.6499 -16.6692 -9.21156 20.3638
11013 1 -14.5705 -8.53101 -15.0718 19.4432 -8.53101 18.9419
1228 1 -11.902 -8.9632 -14.3491 -11.902 -8.9632 -14.3491
5086 1 -13.564 -8.35504 -14.5263 -13.564 25.6587 19.4874
2569 1 -10.8832 -9.76589 -13.7581 -10.8832 -9.76589 20.2556
2243 1 -11.6297 -9.57443 -15.7676 -11.6297 -9.57443 18.2461
12785 1 -9.25795 -9.17912 -14.1289 -9.25795 -9.17912 -14.1289
8711 1 -8.00026 -9.39452 -15.0224 -8.00026 -9.39452 -15.0224
5756 1 -5.81139 -9.93476 -14.0343 -5.81139 24.0789 19.9795
3125 1 -5.11465 -9.82911 -15.1113 -5.11465 -9.82911 18.9024
10790 1 -3.61803 -10.269 -15.2745 -3.61803 -10.269 18.7392
5446 1 -2.86736 -8.72645 -15.2869 -36.8811 -8.72645 -15.2869
189 1 -16.7794 -8.2614 -15.6577 -16.7794 -8.2614 -15.6577
3951 1 -13.4399 -8.42974 -16.2943 -13.4399 -8.42974 17.7194
1145 1 -12.3264 -8.5249 -15.6754 -12.3264 -8.5249 -15.6754
2832 1 -12.4892 -6.61407 -15.4694 -12.4892 -6.61407 18.5443
12124 1 -10.9101 -8.25023 -15.0923 -10.9101 -8.25023 -15.0923
2163 1 -8.88753 -8.21885 -15.2886 -8.88753 -8.21885 18.7251
12672 1 -10.4111 -7.18234 -14.9789 23.6026 -7.18234 -14.9789
11112 1 -7.12009 -7.62844 -16.1057 -7.12009 -7.62844 17.908
1012 1 -7.19067 -8.38599 -14.4099 -7.19067 -8.38599 -14.4099
13515 1 -5.47513 -7.89374 -14.6697 28.5386 -7.89374 -14.6697
461 1 -4.08719 -8.00024 -14.9192 -4.08719 -8.00024 -14.9192
9034 1 -2.9851 -7.14706 -14.914 -2.9851 -7.14706 -14.914
8421 1 -2.30974 -7.86306 -15.7322 -2.30974 -7.86306 -15.7322
5627 1 -16.0407 -7.1029 -15.0545 -16.0407 -7.1029 -15.0545
7143 1 -0.0866712 -0.764819 -0.599343 -0.0866712 -0.764819 -0.599343
224 1 -15.0063 -6.02769 -14.2107 -15.0063 -6.02769 -14.2107
7447 1 -13.5761 -7.19235 -14.9603 -13.5761 -7.19235 19.0534
8777 1 -12.0222 -6.48758 -14.4445 -12.0222 -6.48758 19.5692
3649 1 -13.2756 -5.60698 -15.0895 -13.2756 -5.60698 -15.0895
2478 1 -10.8794 -6.17866 -14.7673 -10.8794 -6.17866 19.2464
10453 1 -9.12584 -6.41452 -15.2679 24.8879 -6.41452 18.7458
13013 1 -8.21547 -6.35311 -14.0147 -8.21547 27.6606 -14.0147
12771 1 -7.31368 -6.15997 -15.3357 -7.31368 27.8537 -15.3357
9939 1 -6.49179 -6.99166 -14.3163 -6.49179 -6.99166 -14.3163
8384 1 -5.19526 -6.07517 -14.4596 -5.19526 -6.07517 -14.4596
476 1 -4.1216 -6.42665 -15.4545 -4.1216 -6.42665 -15.4545
5143 1 -1.76407 -5.6187 -15.1958 -1.76407 -5.6187 -15.1958
4941 1 -0.825568 -6.61633 -14.9527 -0.825568 27.3974 -14.9527
9790 1 -1.10409 -5.54628 -13.8034 -1.10409 -5.54628 -13.8034
3546 1 -16.1473 -5.59523 -15.0207 -16.1473 -5.59523 -15.0207
13312 1 -15.31 -4.93632 -15.1002 18.7037 -4.93632 -15.1002
5221 1 -11.4767 -4.85442 -14.2419 -11.4767 29.1593 19.7718
11190 1 -9.21025 -4.83111 -14.7418 -9.21025 -4.83111 19.272
11751 1 -8.07836 -5.56149 -14.7042 25.9354 -5.56149 19.3095
13514 1 -6.39936 -5.51387 -13.8604 -6.39936 -5.51387 -13.8604
5974 1 -6.57001 -3.90064 -14.3551 -6.57001 -3.90064 -14.3551
14071 1 -5.47498 -4.70212 -15.2607 -5.47498 29.3116 -15.2607
3114 1 -3.84264 -4.09241 -14.957 -3.84264 -4.09241 -14.957
1677 1 -2.19783 -4.77284 -14.6016 -2.19783 -4.77284 -14.6016
6601 1 -0.986407 -4.25586 -15.171 -0.986407 -4.25586 18.8427
16163 1 -15.9045 -3.99626 -14.9326 18.1092 -3.99626 19.0811
12222 1 -7.54956 -1.2142 -16.5355 -7.54956 -1.2142 17.4782
13684 1 -13.9198 -2.76682 -15.2202 20.0939 -2.76682 -15.2202
9620 1 -14.9626 -3.13374 -14.5764 19.0511 -3.13374 -14.5764
11087 1 -12.9811 -4.37806 -15.0104 -12.9811 -4.37806 19.0033
7698 1 -11.6971 -3.60219 -15.1801 -11.6971 -3.60219 18.8336
10909 1 -10.2835 -4.78503 -14.8431 23.7302 -4.78503 19.1706
1279 1 -9.94549 -2.70846 -15.3206 -9.94549 -2.70846 -15.3206
7782 1 -8.60838 -4.01312 -14.9187 -8.60838 -4.01312 19.095
5220 1 -7.25691 -3.20703 -15.4155 -7.25691 -3.20703 -15.4155
5089 1 -3.73825 -2.69627 -14.7765 -3.73825 -2.69627 -14.7765
7710 1 -2.15971 -3.53903 -14.1882 -2.15971 -3.53903 19.8255
9149 1 -16.1914 -2.27749 -15.1884 17.8223 -2.27749 -15.1884
2366 1 -15.1202 -1.66193 -15.239 -15.1202 -1.66193 18.7747
5076 1 -15.6839 -2.31934 -13.8869 -15.6839 31.6944 -13.8869
10583 1 -13.3246 -2.05553 -14.7411 20.6891 -2.05553 -14.7411
8736 1 -12.8328 -2.87814 -13.6683 21.1809 -2.87814 -13.6683
12986 1 -11.9344 -2.23703 -15.4595 -11.9344 -2.23703 -15.4595
13232 1 -11.1033 -2.53977 -14.1284 22.9104 -2.53977 -14.1284
9624 1 -8.71219 -2.82928 -14.9542 25.3015 -2.82928 -14.9542
3147 1 -7.09269 -1.30243 -15.1887 -7.09269 -1.30243 18.825
8871 1 -5.95033 -2.77493 -14.8949 28.0634 -2.77493 -14.8949
8515 1 -4.88613 -3.51624 -14.8661 29.1276 -3.51624 -14.8661
3286 1 -4.7223 -1.76401 -15.111 -4.7223 -1.76401 -15.111
3839 1 -3.55782 -1.72914 -15.8327 -3.55782 -1.72914 18.1811
1472 1 -1.07628 -2.60852 -14.2301 -1.07628 -2.60852 -14.2301
10391 1 -0.285308 -2.62263 -15.2276 -0.285308 -2.62263 -15.2276
12753 1 -15.9339 -0.810716 -14.7818 18.0798 -0.810716 -14.7818
11169 1 -16.8061 -0.503458 -15.4044 17.2076 -0.503458 18.6093
9079 1 -14.0718 -0.954632 -14.7304 19.9419 -0.954632 -14.7304
927 1 -16.9366 -12.3415 -1.83264 -16.9366 -12.3415 -1.83264
8612 1 -0.303782 -5.41615 -6.7095 -0.303782 -5.41615 -6.7095
11740 1 -12.6016 -1.14869 -14.3711 21.4121 -1.14869 19.6426
13268 1 -11.0393 -1.14949 -15.1281 -11.0393 -1.14949 -15.1281
8954 1 -5.88224 -9.32334 -0.0681154 28.1315 -9.32334 -0.0681154
7006 1 -9.85454 -0.677669 -14.5241 -9.85454 -0.677669 19.4896
2191 1 -7.54231 -0.197864 -14.2742 -7.54231 -0.197864 19.7395
14550 1 -8.10319 -1.67836 -15.385 -8.10319 -1.67836 18.6287
14411 1 -8.63304 -1.45503 -14.3528 -8.63304 -1.45503 19.6609
9361 1 -5.53465 -0.546964 -14.7481 -5.53465 -0.546964 -14.7481
14088 1 -0.16114 -3.15556 -12.2701 -0.16114 30.8582 -12.2701
9619 1 -3.69368 -5.66424 -16.9715 -3.69368 -5.66424 -16.9715
1047 1 -2.29237 -0.914815 -15.0796 -2.29237 -0.914815 -15.0796
2980 1 -1.22356 -1.21373 -14.9553 -1.22356 -1.21373 -14.9553
634 1 -15.6145 -15.8761 -13.566 18.3992 -15.8761 -13.566
1625 1 -15.2479 -16.3966 -12.6441 -15.2479 -16.3966 -12.6441
13193 1 -13.8801 -16.4216 -14.6169 20.1336 17.5922 -14.6169
2648 1 -13.4818 -16.2035 -12.9079 -13.4818 -16.2035 21.1058
1248 1 -0.325325 -7.76367 -13.9386 -0.325325 -7.76367 -13.9386
1013 1 -11.0894 -15.8314 -13.2258 -11.0894 -15.8314 -13.2258
4627 1 -10.2307 -16.6491 -12.533 -10.2307 17.3646 -12.533
2690 1 -8.38901 -15.1756 -11.8104 -8.38901 -15.1756 22.2034
1690 1 -8.96414 -16.8613 -13.8659 -8.96414 17.1524 -13.8659
9278 1 -7.13055 -16.506 -13.2827 -7.13055 -16.506 -13.2827
11513 1 -4.05699 -14.6811 -13.5742 -4.05699 -14.6811 20.4395
15998 1 -5.67316 -15.9364 -13.0777 -5.67316 -15.9364 20.936
6016 1 -3.67334 -15.7603 -13.16 -3.67334 -15.7603 -13.16
6969 1 -2.91283 -16.7666 -14.1847 -2.91283 17.2471 19.829
14089 1 -2.35708 -16.403 -13.1562 -2.35708 17.6107 -13.1562
8445 1 -0.602206 -16.7556 -12.9965 -0.602206 -16.7556 -12.9965
4859 1 -16.8492 -16.2976 -14.1925 -16.8492 17.7161 -14.1925
4322 1 -15.9427 -15.1989 -12.4698 -15.9427 18.8148 -12.4698
10250 1 -15.2918 -14.8493 -14.4273 18.7219 -14.8493 -14.4273
1514 1 -14.5229 -15.294 -13.1239 -14.5229 -15.294 -13.1239
8535 1 -12.8733 -15.136 -13.7145 -12.8733 -15.136 -13.7145
1193 1 -10.2737 -15.0061 -13.1856 -10.2737 -15.0061 -13.1856
6420 1 -8.9737 -14.9686 -13.8679 -8.9737 19.0451 20.1458
5518 1 -8.3892 -16.01 -13.4715 -8.3892 18.0037 -13.4715
1339 1 -6.54358 -14.7014 -12.9212 -6.54358 -14.7014 -12.9212
15558 1 -1.57914 -15.0537 -14.5009 -1.57914 18.96 19.5128
10628 1 -0.917925 -14.1195 -13.9058 -0.917925 -14.1195 20.1079
8192 1 -15.834 -13.9249 -13.6606 -15.834 20.0889 20.3531
16266 1 -14.8782 -12.9218 -13.4269 19.1355 21.0919 -13.4269
921 1 -13.6073 -13.3526 -13.4475 -13.6073 -13.3526 -13.4475
1414 1 -13.6415 -14.3674 -14.4752 -13.6415 -14.3674 -14.4752
2933 1 -12.2366 -14.3963 -13.0947 -12.2366 -14.3963 20.919
12886 1 -11.1857 -13.388 -13.0661 -11.1857 20.6257 -13.0661
7688 1 -9.23905 -14.1419 -13.2488 -9.23905 -14.1419 20.7649
4246 1 -8.5656 -12.463 -12.9873 -8.5656 21.5507 -12.9873
82 1 -7.68914 -13.7678 -12.8778 -7.68914 -13.7678 -12.8778
3070 1 -6.99483 -12.5778 -13.1751 -6.99483 -12.5778 20.8386
5235 1 -7.30365 -13.3452 -14.0541 -7.30365 -13.3452 -14.0541
12550 1 -4.6385 -13.9128 -13.0013 -4.6385 -13.9128 -13.0013
10535 1 -5.99969 -13.5539 -12.9732 28.014 -13.5539 -12.9732
321 1 -3.26455 -13.5278 -14.351 -3.26455 -13.5278 -14.351
5413 1 -1.92897 -14.188 -12.8147 -1.92897 19.8258 -12.8147
8889 1 -2.21987 -13.2446 -13.6139 -2.21987 -13.2446 -13.6139
3103 1 -16.148 -11.8062 -14.1735 -16.148 -11.8062 19.8402
3885 1 -8.24914 -6.13842 -16.1074 -8.24914 -6.13842 17.9063
6711 1 -12.1147 -12.3168 -13.7486 -12.1147 21.6969 20.2652
3976 1 -11.8742 -12.3001 -12.6967 -11.8742 -12.3001 -12.6967
1663 1 -10.1179 -12.913 -13.5197 -10.1179 -12.913 -13.5197
7956 1 -10.0117 -12.3381 -12.135 -10.0117 21.6756 -12.135
8774 1 -9.31849 -12.3425 -14.2934 -9.31849 -12.3425 -14.2934
1798 1 -7.93953 -11.7809 -15.0381 -7.93953 -11.7809 -15.0381
4980 1 -7.58504 -11.4348 -13.4995 -7.58504 -11.4348 -13.4995
15986 1 -6.24263 -11.4043 -13.5854 -6.24263 -11.4043 20.4283
10853 1 -5.97393 -12.4723 -13.228 -5.97393 -12.4723 -13.228
12783 1 -3.28522 -12.2801 -13.967 -3.28522 21.7337 -13.967
16370 1 -2.18768 -11.8406 -12.8686 -2.18768 22.1731 21.1451
13639 1 -1.19772 -12.5176 -13.5536 -1.19772 21.4961 -13.5536
4923 1 -15.9204 -10.5147 -14.5705 -15.9204 23.499 -14.5705
305 1 -14.9577 -11.1649 -14.2519 -14.9577 -11.1649 -14.2519
10385 1 -13.7672 -11.1551 -13.868 20.2465 -11.1551 -13.868
14050 1 -12.9878 -10.1824 -14.4071 21.0259 23.8313 19.6066
8527 1 -12.4739 -11.0697 -13.362 21.5398 -11.0697 -13.362
150 1 -10.5734 -11.4018 -13.3651 -10.5734 -11.4018 -13.3651
8960 1 -9.56452 -10.5985 -12.7161 24.4492 -10.5985 -12.7161
3645 1 -7.0528 -10.3895 -12.692 -7.0528 -10.3895 21.3217
6512 1 -5.06696 -11.2793 -13.5054 -5.06696 22.7345 20.5083
12425 1 -5.80839 -10.3209 -12.8422 -5.80839 23.6928 -12.8422
4665 1 -3.0853 -10.6337 -13.9866 -3.0853 23.38 -13.9866
10615 1 -2.16548 -10.3725 -13.6146 -2.16548 -10.3725 20.3991
743 1 -0.932306 -11.4964 -14.0933 -0.932306 -11.4964 -14.0933
2560 1 -5.46032 -3.02959 -16.8139 -5.46032 -3.02959 17.1998
13987 1 -14.1953 -8.5133 -13.0978 19.8184 -8.5133 -13.0978
4316 1 -14.6993 -9.58224 -13.6087 -14.6993 24.4315 -13.6087
5597 1 -13.2462 -9.42522 -13.2839 -13.2462 24.5885 -13.2839
3263 1 -11.8449 -9.7854 -12.8833 -11.8449 -9.7854 21.1304
4413 1 -9.82014 -10.3205 -13.8706 -9.82014 23.6932 -13.8706
11161 1 -9.24327 -8.48405 -12.6605 24.7704 -8.48405 21.3532
13170 1 -8.06639 -8.84612 -13.4329 -8.06639 25.1676 -13.4329
6318 1 -4.51983 -9.89863 -13.2271 -4.51983 -9.89863 20.7866
6427 1 -5.13846 -8.52889 -13.0664 -5.13846 25.4848 20.9473
8542 1 -3.55674 -9.90758 -12.4462 -3.55674 -9.90758 -12.4462
1831 1 -3.61724 -8.84039 -14.1304 -3.61724 -8.84039 -14.1304
350 1 -1.96631 -7.95415 -14.1605 -1.96631 -7.95415 -14.1605
2121 1 -1.71803 -9.12089 -13.2991 -1.71803 -9.12089 -13.2991
3355 1 -0.768965 -10.0061 -14.1315 -0.768965 -10.0061 19.8822
8968 1 -0.106137 -9.05052 -13.932 -0.106137 -9.05052 -13.932
15695 1 -15.4995 -8.76541 -14.2011 18.5142 25.2483 19.8126
9400 1 -14.6747 -7.70403 -14.4557 19.3391 -7.70403 19.558
2381 1 -12.7533 -6.93381 -13.868 -12.7533 -6.93381 20.1457
1710 1 -13.0947 -7.91548 -13.2205 -13.0947 -7.91548 -13.2205
791 1 -10.5001 -8.5371 -13.6752 -10.5001 -8.5371 -13.6752
1676 1 -10.8736 -7.43534 -12.4504 -10.8736 -7.43534 -12.4504
352 1 -9.69118 -7.65247 -14.192 -9.69118 -7.65247 -14.192
2022 1 -8.39704 -7.92938 -12.1079 -8.39704 -7.92938 -12.1079
320 1 -8.30125 -7.77841 -14.1418 -8.30125 -7.77841 -14.1418
7878 1 -6.42038 -8.64751 -13.3957 -6.42038 25.3662 20.618
452 1 -5.46924 -7.31391 -13.5132 -5.46924 -7.31391 -13.5132
2075 1 -5.00219 -6.29442 -12.5238 -5.00219 -6.29442 21.4899
9916 1 -2.89838 -7.31365 -13.5213 -2.89838 -7.31365 -13.5213
14547 1 -15.4482 -7.23801 -13.9014 18.5655 -7.23801 20.1123
12818 1 -13.9104 -6.78789 -13.5055 20.1033 -6.78789 -13.5055
4753 1 -11.2862 -5.92768 -13.3384 -11.2862 -5.92768 -13.3384
845 1 -11.3283 -7.24771 -13.8939 -11.3283 -7.24771 -13.8939
9089 1 -9.9413 -6.50752 -12.9362 -9.9413 -6.50752 -12.9362
9539 1 -8.5453 -6.3728 -12.83 -8.5453 -6.3728 -12.83
7035 1 -7.17443 -6.65563 -13.4541 -7.17443 27.3581 20.5596
11915 1 -4.14105 -7.11853 -14.0203 -4.14105 -7.11853 19.9934
5203 1 -3.72365 -5.89417 -13.3908 -37.7374 -5.89417 -13.3908
14414 1 -2.78659 -6.00849 -14.4864 -2.78659 -6.00849 19.5273
9990 1 -1.29152 -6.86197 -13.8698 -1.29152 -6.86197 -13.8698
324 1 -9.62814 -5.89304 -16.4869 -9.62814 -5.89304 -16.4869
2256 1 -16.8257 -5.81972 -13.5521 -16.8257 -5.81972 20.4616
4904 1 -14.5212 -4.89166 -14.3212 -14.5212 -4.89166 -14.3212
468 1 -15.3468 -5.49046 -12.7711 -15.3468 -5.49046 -12.7711
6725 1 -13.442 -5.57262 -13.8775 -13.442 -5.57262 20.1362
1 1 -13.0858 -5.01149 -12.9092 -13.0858 -5.01149 -12.9092
10268 1 -12.614 -4.74195 -13.9377 21.3997 -4.74195 -13.9377
11830 1 -9.82928 -4.86289 -13.6664 24.1844 -4.86289 20.3474
12483 1 -9.04471 -5.78811 -13.8346 -9.04471 -5.78811 -13.8346
622 1 -9.04077 -3.72261 -12.6083 -9.04077 -3.72261 -12.6083
8225 1 -7.38747 -5.54262 -13.4545 -7.38747 -5.54262 -13.4545
5087 1 -6.74608 -4.57454 -12.9324 -6.74608 -4.57454 -12.9324
8390 1 -5.39991 -5.54209 -13.2623 -5.39991 -5.54209 -13.2623
9544 1 -5.94091 -4.0078 -12.2693 -5.94091 -4.0078 -12.2693
11257 1 -3.94823 -3.85427 -12.9777 -3.94823 -3.85427 21.0361
6507 1 -2.67792 -5.02028 -13.4456 -2.67792 28.9934 -13.4456
8322 1 -2.0683 -6.08695 -12.9487 -2.0683 -6.08695 -12.9487
15544 1 -0.109005 -4.58744 -14.2038 -0.109005 -4.58744 19.8099
15775 1 -16.0898 -4.25446 -13.5097 17.9239 -4.25446 20.504
9666 1 -14.6549 -4.00002 -13.5811 19.3588 -4.00002 -13.5811
5332 1 -13.7633 -3.70384 -13.988 -13.7633 -3.70384 20.0257
8876 1 -13.3156 -3.23709 -12.8597 -13.3156 -3.23709 -12.8597
1527 1 -11.8437 -3.92737 -13.9939 -11.8437 -3.92737 -13.9939
4849 1 -10.6331 -3.46245 -13.8229 -10.6331 30.5513 20.1908
10506 1 -7.94313 -3.68246 -14.0071 26.0706 -3.68246 20.0066
10130 1 -7.38097 -3.16252 -12.9165 26.6327 -3.16252 -12.9165
3078 1 -5.15468 -2.73327 -12.6377 -5.15468 -2.73327 -12.6377
1741 1 -5.46117 -4.19363 -14.2511 -5.46117 -38.2073 -14.2511
4386 1 -3.2078 -3.37555 -13.5041 -3.2078 -3.37555 -13.5041
14299 1 -0.299609 -3.34575 -14.0532 -0.299609 -3.34575 -14.0532
5230 1 -1.25088 -4.14115 -13.5074 -1.25088 -4.14115 -13.5074
554 1 -15.838 -3.22488 -12.8664 -15.838 -3.22488 -12.8664
16309 1 -16.8055 -0.981902 -13.5341 17.2082 -0.981902 -13.5341
7197 1 -15.2667 -2.19691 -12.9413 -15.2667 -2.19691 21.0724
3574 1 -14.142 -2.20082 -13.5097 -14.142 -2.20082 20.504
4403 1 -12.5999 -2.51292 -12.5308 -12.5999 -2.51292 -12.5308
14073 1 -10.6206 -2.16877 -12.9045 -10.6206 -2.16877 -12.9045
3855 1 -9.08738 -2.73543 -13.7693 -9.08738 -2.73543 20.2444
3805 1 -10.1513 -1.95091 -14.2753 -10.1513 -1.95091 19.7384
5352 1 -7.43836 -1.85516 -13.8742 -7.43836 -1.85516 -13.8742
1878 1 -6.16555 -2.75086 -13.0222 -6.16555 -2.75086 -13.0222
8063 1 -5.15961 -1.93238 -13.841 -5.15961 -1.93238 20.1727
4263 1 -4.4184 -2.84106 -13.641 -4.4184 -2.84106 -13.641
13560 1 -3.89013 -1.6105 -14.1319 -3.89013 -1.6105 -14.1319
838 1 -3.72649 -2.28042 -12.7326 -3.72649 -2.28042 -12.7326
1679 1 -2.51587 -2.0631 -13.6369 -2.51587 -2.0631 -13.6369
9241 1 -0.610297 -2.15047 -12.9991 -0.610297 -2.15047 -12.9991
12173 1 -15.7208 -0.584485 -13.252 18.2929 -0.584485 20.7617
1254 1 -3.60158 -1.11876 -0.821878 -3.60158 -35.1325 -0.821878
9365 1 -13.3892 -0.807186 -13.1357 -13.3892 -0.807186 -13.1357