ITEM: TIMESTEP
5000
ITEM: NUMBER OF ATOMS
16384
ITEM: BOX BOUNDS pp pp pp
-1.7006855707231768e+01 1.7006855707231768e+01
-1.7006855707231768e+01 1.7006855707231768e+01
-1.7006855707231768e+01 1.7006855707231768e+01
ITEM: ATOMS id type x y z xu yu zu
1347 1 -9.70799 -6.22955 -0.178183 -9.70799 -6.22955 -0.178183
7216 1 -15.9695 -15.7983 -16.9438 -15.9695 18.2154 17.07
7100 1 -5.52375 -0.483197 -4.27027 -5.52375 -0.483197 29.7434
248 1 -0.421189 -5.263 -11.2393 -0.421189 -5.263 -11.2393
2153 1 -8.20435 -15.6555 -16.5097 -8.20435 -15.6555 17.504
15997 1 -9.69178 -16.3929 -15.5296 -9.69178 17.6208 18.4841
3899 1 -7.48855 -16.2992 -16.0966 -7.48855 -16.2992 17.9171
3698 1 -10.4235 -1.00086 -0.534269 -10.4235 -1.00086 -0.534269
1013 1 -11.2734 -16.6496 -13.4043 -11.2734 -16.6496 -13.4043
7864 1 -5.09442 -15.56 -16.8885 -5.09442 18.4538 17.1252
910 1 -4.4293 -15.6183 -15.4738 -4.4293 -15.6183 -15.4738
14222 1 -12.5617 -0.488454 -1.30608 21.4521 -0.488454 -1.30608
10502 1 -0.91349 -16.3822 -15.848 33.1002 -16.3822 18.1658
16355 1 -3.06943 -16.9366 -15.6969 -3.06943 17.0771 18.3168
11551 1 -15.0303 -16.2007 -16.5179 18.9834 17.813 17.4958
14994 1 -12.0984 -15.8712 -15.7285 21.9153 18.1425 18.2852
4484 1 -10.0531 -15.4757 -16.6183 -10.0531 18.538 -16.6183
13995 1 -9.11997 -14.8211 -16.135 -9.11997 19.1926 -16.135
1047 1 -2.27306 -0.590585 -14.7118 -2.27306 -0.590585 -14.7118
10048 1 -6.03899 -14.8619 -15.4865 -6.03899 -14.8619 -15.4865
4718 1 -7.49074 -14.9525 -16.0106 -7.49074 -14.9525 -16.0106
8332 1 -3.47375 -14.7513 -16.2798 -3.47375 -14.7513 -16.2798
1852 1 -2.63564 -15.7672 -15.4054 -2.63564 -15.7672 -15.4054
10478 1 -1.60657 -15.1388 -16.3835 -1.60657 -15.1388 17.6302
15344 1 -16.4487 -13.1908 -16.073 17.565 20.8229 17.9407
5989 1 -15.4015 -14.4666 -16.4016 -15.4015 19.5471 -16.4016
8453 1 -15.0038 -13.4575 -16.3326 19.0099 -13.4575 -16.3326
2114 1 -13.9852 -14.0067 -15.7552 -13.9852 -14.0067 18.2585
11940 1 -13.6247 -12.5218 -16.217 20.389 -12.5218 17.7967
6866 1 -12.1116 -14.2796 -15.896 -12.1116 19.7341 18.1177
6272 1 -11.4274 -15.0975 -16.646 -11.4274 18.9162 17.3678
15536 1 -2.22348 -16.8548 -16.537 -2.22348 17.1589 -16.537
7734 1 -9.80177 -13.9432 -15.5734 -9.80177 20.0705 18.4403
15533 1 -7.36377 -13.4078 -16.4856 -7.36377 -13.4078 -16.4856
1795 1 -3.19185 -13.3311 -15.7376 -3.19185 -13.3311 -15.7376
2689 1 -14.6825 -0.18695 -4.8097 -14.6825 -0.18695 -4.8097
10788 1 -2.33079 -14.6389 -15.1686 31.6829 -14.6389 18.8451
989 1 -2.6241 -12.9102 -16.59 -2.6241 -12.9102 -16.59
3934 1 -4.50159 -14.162 -16.6258 -4.50159 -14.162 17.3879
8635 1 -16.6984 -11.3531 -16.5051 17.3153 -11.3531 -16.5051
3531 1 -11.7663 -13.0431 -16.1566 -11.7663 -13.0431 17.8571
2868 1 -13.1845 -11.0141 -16.0482 -13.1845 -11.0141 17.9655
7965 1 -0.0745714 -8.27884 -6.81419 -0.0745714 25.7349 27.1995
8072 1 -9.80016 -11.9262 -15.0894 -9.80016 22.0875 18.9243
6368 1 -16.769 -16.2393 -6.68718 -16.769 17.7744 27.3265
11732 1 -3.18254 -0.225934 -11.9947 -3.18254 -0.225934 -11.9947
11401 1 -3.68182 -11.7818 -15.7922 -3.68182 -11.7818 18.2216
618 1 -2.40508 -11.8471 -15.8502 -2.40508 -11.8471 -15.8502
15863 1 -2.00987 -10.833 -16.8986 -2.00987 23.1807 17.1151
2128 1 -1.32235 -11.4214 -16.1794 -1.32235 -11.4214 17.8343
4158 1 -16.0553 -0.185713 -1.82059 -16.0553 -0.185713 -1.82059
15778 1 -14.2638 -7.69546 -16.6318 19.7499 26.3183 17.3819
4995 1 -0.36236 -1.0015 -6.45244 -0.36236 -1.0015 -6.45244
5410 1 -5.12594 -0.0271186 -0.714845 -5.12594 -0.0271186 -0.714845
13199 1 -13.2667 -9.67633 -15.7415 -13.2667 24.3374 -15.7415
2674 1 -16.4884 -4.92072 -8.4562 -16.4884 -4.92072 25.5575
9592 1 -9.14744 -9.95263 -16.3452 -9.14744 -9.95263 -16.3452
6129 1 -7.22758 -10.4403 -16.0942 -7.22758 -10.4403 17.9195
10550 1 -16.5965 -2.69516 -11.9276 17.4172 -2.69516 22.0862
271 1 -4.92888 -10.6451 -16.3779 -4.92888 -10.6451 -16.3779
13343 1 -5.2794 -11.6809 -14.715 -5.2794 22.3328 -14.715
15838 1 -3.78436 -1.12346 -6.35757 -3.78436 -1.12346 -6.35757
11018 1 -2.11359 -10.6099 -15.1139 -2.11359 -10.6099 18.8998
11063 1 -1.11341 -9.61374 -16.5466 -1.11341 -9.61374 17.4672
1348 1 -16.3311 -9.51471 -16.1164 -16.3311 -9.51471 -16.1164
1378 1 -14.1643 -8.95945 -16.2981 -14.1643 -8.95945 -16.2981
2569 1 -11.4438 -8.80145 -14.5874 -11.4438 -8.80145 19.4263
9407 1 -14.9473 -16.4595 -7.89463 19.0664 -16.4595 -7.89463
2243 1 -11.6651 -9.33117 -15.5147 -11.6651 -9.33117 18.499
6544 1 -16.7666 -16.8508 -7.71747 -16.7666 17.1629 -7.71747
13612 1 -8.02083 -8.56628 -16.3807 25.9929 -8.56628 -16.3807
11422 1 -6.79927 -9.63485 -16.7485 27.2144 -9.63485 17.2653
2063 1 -5.23574 -9.00669 -16.5382 -5.23574 -9.00669 17.4755
10137 1 -4.15421 -11.0635 -14.8236 -4.15421 -11.0635 -14.8236
16241 1 -16.4736 -16.5421 -5.27051 17.5401 -16.5421 -5.27051
3816 1 -2.45857 -10.0471 -16.1728 -2.45857 -10.0471 17.841
3995 1 -1.74724 -8.51084 -15.818 -1.74724 -8.51084 18.1957
2867 1 -2.56299 -16.3105 -0.569333 -36.5767 -16.3105 -0.569333
4267 1 -1.18639 -16.4769 -2.56764 -1.18639 17.5368 -2.56764
12128 1 -14.2825 -6.60679 -15.5991 -14.2825 -6.60679 -15.5991
5723 1 -15.3036 -7.92887 -16.0066 -15.3036 26.0848 -16.0066
7292 1 -13.8019 -15.7569 -0.142388 -13.8019 18.2568 -0.142388
2163 1 -8.88879 -7.79008 -15.3996 -8.88879 -7.79008 18.6141
12672 1 -9.88857 -7.18638 -15.2873 24.1251 -7.18638 -15.2873
702 1 -10.7745 -8.37759 -16.3506 -10.7745 -8.37759 -16.3506
7263 1 -7.24824 -7.82915 -16.8071 -7.24824 26.1846 17.2066
1321 1 -6.01998 -7.9014 -16.0672 -6.01998 -7.9014 -16.0672
2490 1 -6.49348 -9.05423 -15.6231 -6.49348 -9.05423 18.3906
1666 1 -4.25149 -8.40387 -15.7906 -4.25149 -8.40387 -15.7906
8604 1 -16.8947 -11.7179 -11.9957 17.119 -11.7179 -11.9957
15421 1 -1.16474 -7.49987 -15.8885 -1.16474 26.5138 -15.8885
2254 1 -16.8586 -4.83259 -16.3389 -16.8586 -4.83259 17.6748
4310 1 -15.6433 -6.30343 -15.9843 -15.6433 27.7103 -15.9843
4627 1 -9.61332 -16.9856 -13.3034 -9.61332 17.0282 -13.3034
9267 1 -13.2366 -6.35843 -16.4029 20.7771 -6.35843 -16.4029
2191 1 -7.61109 -0.207721 -14.6239 -7.61109 -0.207721 19.3898
1258 1 -15.0725 -16.9517 -6.58487 -15.0725 -16.9517 -6.58487
704 1 -10.5151 -6.80453 -16.6145 -10.5151 -6.80453 -16.6145
14117 1 -9.15688 -6.60776 -16.2984 -9.15688 -6.60776 -16.2984
13013 1 -7.94549 -6.9832 -15.0466 -7.94549 27.0305 -15.0466
12771 1 -7.04688 -6.3562 -15.2355 -7.04688 27.6575 -15.2355
1122 1 -8.03104 -2.1111 -0.298321 -8.03104 -2.1111 -0.298321
128 1 -2.03603 -0.0203655 -6.32756 -2.03603 -34.0341 -6.32756
10992 1 -4.15348 -6.26082 -16.2254 -4.15348 -6.26082 17.7883
1707 1 -0.859738 -5.87649 -16.0448 -0.859738 -5.87649 -16.0448
14072 1 -0.311766 -6.22223 -1.41626 -0.311766 27.7915 -1.41626
528 1 -15.7467 -5.10236 -16.2655 -15.7467 -5.10236 -16.2655
13964 1 -13.278 -4.71474 -16.424 -13.278 -4.71474 -16.424
84 1 -11.0847 -4.304 -16.3956 -11.0847 -4.304 -16.3956
11930 1 -10.495 -5.25223 -15.6797 23.5188 -5.25223 18.3341
11190 1 -9.40221 -5.13103 -15.4091 -9.40221 -5.13103 18.6046
122 1 -7.41078 -4.54389 -15.7487 -7.41078 -4.54389 -15.7487
12043 1 -5.76187 -6.18301 -16.25 -5.76187 -6.18301 17.7637
1020 1 -6.70582 -5.28782 -16.6866 -6.70582 -5.28782 -16.6866
12643 1 -0.15742 -2.84217 -6.32681 -0.15742 -2.84217 -6.32681
2242 1 -4.78786 -5.52147 -15.5876 -4.78786 -5.52147 18.4261
7837 1 -2.99211 -5.88795 -16.341 -2.99211 -5.88795 17.6727
3970 1 -2.29468 -3.96996 -16.8977 -2.29468 -3.96996 17.116
12429 1 -0.87259 -4.86689 -16.5612 -0.87259 29.1468 -16.5612
13146 1 -15.6657 -4.14086 -16.9304 18.348 -4.14086 -16.9304
6998 1 -1.38227 -1.21186 -1.08123 -1.38227 -1.21186 -1.08123
865 1 -14.915 -3.65346 -16.0928 -14.915 -3.65346 -16.0928
2288 1 -13.8074 -3.63309 -16.4077 -13.8074 -3.63309 17.606
570 1 -12.1911 -4.42873 -16.0109 -12.1911 -4.42873 -16.0109
10909 1 -10.7385 -3.96352 -15.2961 23.2752 -3.96352 18.7176
3495 1 -9.30135 -1.62628 -16.4293 -9.30135 -1.62628 17.5844
14187 1 -10.019 -4.46713 -16.1578 23.9947 -4.46713 -16.1578
11629 1 -1.31541 -0.502424 -1.95588 -1.31541 -0.502424 -1.95588
762 1 -6.45345 -3.87566 -16.2199 -6.45345 -3.87566 -16.2199
12909 1 -7.12145 -16.966 -2.21474 -7.12145 17.0477 -2.21474
2026 1 -3.87354 -2.84497 -16.529 -3.87354 -36.8587 -16.529
11231 1 -2.61142 -3.55851 -15.6851 -2.61142 -3.55851 18.3286
10407 1 -2.14964 -2.66668 -16.1926 -2.14964 -2.66668 -16.1926
11415 1 -8.4619 -5.16551 -16.8055 25.5518 -5.16551 17.2082
11526 1 -0.911325 -8.52108 -16.9931 -0.911325 -8.52108 17.0206
15754 1 -13.9229 -2.46115 -16.1702 20.0908 -2.46115 17.8435
2366 1 -14.6923 -1.3779 -15.544 -14.6923 -1.3779 18.4697
2988 1 -10.1926 -0.129799 -10.8787 -10.1926 -0.129799 23.135
3107 1 -0.273315 -0.101844 -2.57148 -0.273315 -0.101844 -2.57148
2906 1 -11.8127 -2.88064 -16.0192 -11.8127 -2.88064 17.9945
5524 1 -11.3092 -1.93945 -16.5372 -11.3092 -1.93945 -16.5372
15042 1 -10.3975 -3.29417 -16.33 23.6162 -3.29417 17.6837
1279 1 -10.3804 -3.01367 -14.9789 -10.3804 -3.01367 -14.9789
12283 1 -0.381453 -8.36526 -12.7023 -0.381453 -8.36526 21.3114
1487 1 -7.9359 -2.04453 -16.4569 -7.9359 -2.04453 -16.4569
12090 1 -6.33066 -2.02008 -16.2278 27.6831 -2.02008 17.7859
7492 1 -5.09775 -1.8308 -15.9875 -5.09775 -1.8308 18.0262
12024 1 -2.61874 -1.67287 -15.622 -2.61874 -1.67287 18.3917
15266 1 -14.8243 -0.402195 -15.7529 19.1894 -0.402195 18.2608
9082 1 -1.23206 -3.63571 -16.0622 -1.23206 -3.63571 -16.0622
13045 1 -1.22996 -16.1825 -0.348356 -1.22996 17.8312 -0.348356
953 1 -1.30156 -2.06308 -15.8949 -1.30156 -2.06308 -15.8949
5315 1 -15.6463 -0.76388 -16.5357 -15.6463 -0.76388 -16.5357
8724 1 -5.73354 -16.5687 -4.84603 28.2802 -16.5687 -4.84603
10583 1 -13.2533 -1.73896 -15.048 20.7604 -1.73896 -15.048
8427 1 -12.691 -0.774548 -15.8357 21.3227 -0.774548 -15.8357
9241 1 -0.140507 -1.79046 -13.0867 -0.140507 -1.79046 -13.0867
2291 1 -11.4815 -0.486328 -16.7348 -11.4815 -0.486328 17.279
15213 1 -2.07777 -6.9276 -16.8545 -2.07777 27.0861 17.1593
13268 1 -10.6086 -1.37537 -15.4377 -10.6086 -1.37537 -15.4377
7006 1 -8.80105 -1.1383 -15.365 -8.80105 -1.1383 18.6487
14550 1 -7.44276 -0.945801 -15.4615 -7.44276 -0.945801 18.5522
13096 1 -4.87844 -0.81706 -16.3714 -4.87844 -0.81706 -16.3714
6799 1 -6.29575 -0.55964 -16.3502 -6.29575 -0.55964 17.6635
15636 1 -0.0866065 -15.6944 -4.55268 -0.0866065 18.3193 -4.55268
4790 1 -2.84857 -0.541655 -16.0567 -2.84857 -0.541655 -16.0567
12294 1 -1.21189 -0.769116 -16.2641 -1.21189 -0.769116 17.7496
12354 1 -15.5891 -13.1245 -0.331474 18.4246 -13.1245 -0.331474
8483 1 -16.0895 -12.9663 -2.29229 17.9242 -12.9663 -2.29229
634 1 -15.8746 -16.1746 -13.5931 18.1392 -16.1746 -13.5931
4877 1 -6.42471 -0.0415117 -13.2159 -6.42471 -0.0415117 -13.2159
12326 1 -15.7992 -16.1534 -14.8761 18.2145 -16.1534 19.1376
6256 1 -14.3228 -16.4351 -15.5588 -14.3228 17.5786 18.4549
15080 1 -0.0439338 -15.1616 -5.69773 -0.0439338 18.8521 -5.69773
13193 1 -13.9641 -16.4056 -14.0873 20.0496 17.6081 -14.0873
6369 1 -12.0452 -16.3108 -14.7459 -12.0452 17.703 19.2678
5767 1 -10.972 -16.2061 -15.3965 -10.972 17.8076 -15.3965
13132 1 -1.41046 -16.3246 -3.98852 -1.41046 -16.3246 -3.98852
1970 1 -7.28693 -15.7837 -14.214 -7.28693 -15.7837 -14.214
14307 1 -6.04238 -15.8938 -15.7039 27.9713 18.1199 -15.7039
13151 1 -3.73102 -16.9073 -14.2177 -3.73102 17.1064 -14.2177
804 1 -1.70097 -16.4108 -14.9161 -1.70097 -16.4108 -14.9161
9080 1 -13.9404 -9.50238 -0.491538 20.0733 -9.50238 -0.491538
15926 1 -16.2965 -15.5489 -15.915 17.7172 18.4648 18.0987
7981 1 -14.8918 -14.9884 -15.1251 -14.8918 19.0253 18.8886
8786 1 -13.6781 -14.8055 -14.9832 20.3356 -14.8055 -14.9832
6463 1 -12.561 -15.0192 -14.9636 -12.561 18.9945 19.0501
14619 1 -11.0923 -14.1645 -14.4005 22.9214 19.8492 -14.4005
9994 1 -10.9142 -15.3619 -14.178 23.0995 -15.3619 -14.178
4829 1 -10.6877 -14.8115 -15.7741 -10.6877 19.2023 -15.7741
2162 1 -9.02898 -15.3858 -14.875 -9.02898 -15.3858 19.1387
1281 1 -8.68907 -13.3952 -15.7831 -8.68907 -13.3952 -15.7831
9102 1 -7.93526 -15.0782 -14.7624 -7.93526 -15.0782 -14.7624
12118 1 -5.25563 -14.7972 -14.3866 -5.25563 -14.7972 -14.3866
1339 1 -6.37868 -15.1044 -13.831 -6.37868 -15.1044 -13.831
8838 1 -3.18319 -15.2581 -14.3715 -3.18319 -15.2581 -14.3715
15558 1 -1.94337 -15.1512 -13.7888 -1.94337 18.8625 20.2249
10084 1 -1.11799 -14.9437 -15.0231 -1.11799 -14.9437 -15.0231
4580 1 -14.8755 -9.71907 -1.28361 -14.8755 -9.71907 -1.28361
7800 1 -14.4779 -13.6253 -14.9394 -14.4779 20.3884 19.0743
2238 1 -12.5975 -14.0122 -14.4655 -12.5975 -14.0122 19.5482
7751 1 -9.85806 -14.6913 -14.2726 -9.85806 19.3224 19.7411
12676 1 -11.1753 -13.5546 -15.3942 22.8384 20.4591 -15.3942
14809 1 -8.31561 -11.6672 -16.0606 -8.31561 -11.6672 -16.0606
5482 1 -7.15897 -14.0969 -14.7322 -7.15897 19.9168 -14.7322
13970 1 -3.82135 -12.5829 -16.6118 -3.82135 -12.5829 -16.6118
5291 1 -3.65132 -14.3707 -15.1719 -3.65132 19.643 -15.1719
839 1 -4.19427 -13.1106 -15.2376 -4.19427 -13.1106 -15.2376
7564 1 -2.34208 -13.0877 -15.0956 -2.34208 20.926 18.9181
5707 1 -1.5304 -13.7099 -16.231 -1.5304 20.3038 -16.231
9239 1 -15.9682 -13.2185 -14.5058 18.0455 20.7952 -14.5058
736 1 -13.3013 -12.2544 -14.5515 -13.3013 -12.2544 -14.5515
4146 1 -12.1898 -11.6398 -15.7702 -12.1898 22.3739 -15.7702
6711 1 -12.4336 -12.641 -13.65 -12.4336 21.3727 20.3637
1663 1 -10.7729 -12.4866 -13.6315 -10.7729 -12.4866 -13.6315
8774 1 -9.01766 -11.9049 -14.0679 -9.01766 -11.9049 -14.0679
12072 1 -9.89557 -13.0507 -14.9003 24.1181 -13.0507 19.1134
12208 1 -7.14603 -11.5934 -15.686 26.8677 -11.5934 18.3277
312 1 -7.78882 -12.8382 -14.7779 -7.78882 -12.8382 19.2358
1048 1 -6.23546 -13.1492 -16.0817 -6.23546 -13.1492 -16.0817
3906 1 -6.09476 -11.7601 -16.1627 -6.09476 -11.7601 17.851
602 1 -5.24929 -10.1396 -14.4249 -5.24929 -10.1396 -14.4249
8214 1 -4.19991 -12.0983 -14.2121 -4.19991 21.9155 19.8016
516 1 -2.05052 -12.1158 -14.1912 -2.05052 -12.1158 -14.1912
730 1 -15.6398 -10.3916 -16.2724 -15.6398 -10.3916 -16.2724
508 1 -16.3734 -9.01469 -14.926 -16.3734 -9.01469 19.0877
888 1 -14.5525 -11.3021 -15.6657 -14.5525 -11.3021 -15.6657
10243 1 -14.9864 -9.99517 -14.9049 -14.9864 -9.99517 -14.9049
12058 1 -14.2695 -10.0507 -16.0072 19.7442 -10.0507 18.0065
8965 1 -12.3523 -10.5024 -14.8964 21.6614 -10.5024 -14.8964
11950 1 -11.0299 -12.0099 -14.7326 22.9838 -12.0099 19.2812
10702 1 -10.7823 -10.6757 -14.9695 -10.7823 -10.6757 19.0442
150 1 -10.495 -11.1154 -13.6646 -10.495 -11.1154 -13.6646
6141 1 -8.54856 -10.4953 -15.4214 -8.54856 23.5184 18.5923
5116 1 -6.23504 -11 -14.8703 -6.23504 -11 -14.8703
4665 1 -3.41901 -10.2709 -14.0412 -3.41901 23.7428 -14.0412
9355 1 -0.836284 -10.7808 -14.7755 -0.836284 -10.7808 19.2382
478 1 -2.89361 -1.49213 -16.7221 -2.89361 -35.5058 -16.7221
11013 1 -14.8364 -8.55939 -14.9141 19.1773 -8.55939 19.0996
1228 1 -12.9163 -9.35383 -14.5026 -12.9163 -9.35383 -14.5026
3263 1 -11.8191 -9.8538 -13.1506 -11.8191 -9.8538 20.8631
4269 1 -9.71878 -9.23689 -15.6479 -9.71878 -9.23689 -15.6479
4413 1 -10.4079 -9.75586 -13.7482 -10.4079 24.2579 -13.7482
8711 1 -8.50296 -8.97804 -15.1677 -8.50296 -8.97804 -15.1677
9906 1 -9.80291 -10.5545 -15.3209 -9.80291 -10.5545 -15.3209
15352 1 -7.29531 -10.1556 -15.006 26.7184 -10.1556 19.0077
352 1 -9.06426 -7.64327 -13.7647 -9.06426 -7.64327 -13.7647
5756 1 -6.41858 -9.68533 -14.2222 -6.41858 24.3284 19.7915
3125 1 -5.37154 -9.62472 -15.421 -5.37154 -9.62472 18.5927
10790 1 -4.00386 -9.80787 -15.2624 -4.00386 -9.80787 18.7513
2393 1 -3.21598 -9.13916 -16.4016 -3.21598 -9.13916 -16.4016
5446 1 -2.47267 -9.1522 -15.0277 -36.4864 -9.1522 -15.0277
3082 1 -0.602977 -8.93108 -15.7489 -0.602977 -8.93108 18.2648
189 1 -16.2889 -7.97762 -15.1357 -16.2889 -7.97762 -15.1357
8583 1 -12.7783 -9.05022 -16.4528 -12.7783 -9.05022 -16.4528
3951 1 -13.2418 -8.2741 -15.4583 -13.2418 -8.2741 18.5554
1145 1 -12.2638 -7.92646 -14.778 -12.2638 -7.92646 -14.778
12124 1 -10.7298 -8.18928 -15.2114 -10.7298 -8.18928 -15.2114
9539 1 -8.35743 -6.88552 -13.2252 -8.35743 -6.88552 -13.2252
791 1 -10.6023 -7.95812 -14.0199 -10.6023 -7.95812 -14.0199
11112 1 -7.61127 -7.89132 -15.4328 -7.61127 -7.89132 18.5809
1012 1 -6.77187 -8.23384 -14.6712 -6.77187 -8.23384 -14.6712
13515 1 -5.42276 -7.63407 -14.6954 28.591 -7.63407 -14.6954
461 1 -4.36949 -8.27082 -14.5578 -4.36949 -8.27082 -14.5578
350 1 -1.61148 -8.79367 -14.0382 -1.61148 -8.79367 -14.0382
8421 1 -2.28976 -7.75248 -15.2234 -2.28976 -7.75248 -15.2234
5143 1 -1.69943 -6.89011 -14.9563 -1.69943 -6.89011 -14.9563
1366 1 -16.4606 -6.78083 -16.6235 -16.4606 -6.78083 -16.6235
5891 1 -14.129 -5.15045 -15.9872 -14.129 -5.15045 -15.9872
2832 1 -12.5465 -7.13279 -15.5295 -12.5465 -7.13279 18.4842
8388 1 -11.3763 -6.37877 -16.0782 -11.3763 -6.37877 -16.0782
8777 1 -11.9075 -7.0505 -14.4686 -11.9075 -7.0505 19.5452
2478 1 -10.6114 -6.3685 -14.7251 -10.6114 -6.3685 19.2887
10453 1 -9.07727 -6.17222 -14.9095 24.9364 -6.17222 19.1042
9939 1 -6.20954 -6.70187 -14.793 -6.20954 -6.70187 -14.793
7029 1 -4.84421 -7.43094 -15.9747 -4.84421 26.5828 18.039
9034 1 -3.36456 -7.2829 -14.7406 -3.36456 -7.2829 -14.7406
16127 1 -3.45937 -7.60647 -16.0573 -3.45937 -7.60647 17.9564
3114 1 -3.62695 -4.71158 -15.2971 -3.62695 -4.71158 -15.2971
3546 1 -16.0894 -5.36602 -15.1257 -16.0894 -5.36602 -15.1257
13312 1 -14.8751 -4.83976 -14.609 19.1386 -4.83976 -14.609
3649 1 -12.5078 -5.78674 -14.8649 -12.5078 -5.78674 -14.8649
5221 1 -11.5119 -5.4643 -15.15 -11.5119 28.5494 18.8637
11087 1 -13.4234 -4.18677 -15.1882 -13.4234 -4.18677 18.8255
11830 1 -9.76637 -4.54192 -13.9855 24.2473 -4.54192 20.0282
11751 1 -8.12699 -5.34466 -14.8732 25.8867 -5.34466 19.1405
13514 1 -6.93105 -5.57431 -14.3874 -6.93105 -5.57431 -14.3874
10875 1 -8.89942 -3.37317 -15.8892 25.1143 -3.37317 18.1245
5974 1 -7.03385 -4.38623 -14.7423 -7.03385 -4.38623 -14.7423
11257 1 -4.18666 -4.32665 -13.729 -4.18666 -4.32665 20.2847
14071 1 -5.86703 -4.77551 -15.3172 -5.86703 29.2382 -15.3172
5089 1 -3.17937 -3.11426 -14.7742 -3.17937 -3.11426 -14.7742
1606 1 -2.19666 -4.89379 -15.9236 -2.19666 -4.89379 -15.9236
6601 1 -0.912944 -4.47468 -15.2255 -0.912944 -4.47468 18.7882
16163 1 -16.3461 -3.66972 -15.5448 17.6676 -3.66972 18.4689
13684 1 -14.7521 -3.00073 -15.0386 19.2616 -3.00073 -15.0386
7698 1 -11.7748 -3.56807 -14.9218 -11.7748 -3.56807 19.0919
7782 1 -9.21399 -3.68285 -14.6641 -9.21399 -3.68285 19.3496
3147 1 -6.76391 -1.7377 -15.3212 -6.76391 -1.7377 18.6925
8459 1 -6.97525 -2.83277 -16.0154 -6.97525 -2.83277 -16.0154
8515 1 -5.05943 -2.72019 -15.2734 28.9543 -2.72019 -15.2734
9145 1 -4.74894 -4.20293 -15.9238 -4.74894 -4.20293 -15.9238
7710 1 -2.01587 -3.63119 -14.6942 -2.01587 -3.63119 19.3195
554 1 -15.9611 -2.58655 -13.9235 -15.9611 -2.58655 -13.9235
1383 1 -15.472 -2.38484 -15.8269 -15.472 -2.38484 -15.8269
5131 1 -13.0382 -2.77012 -15.5911 -13.0382 -2.77012 -15.5911
5076 1 -14.8961 -1.88744 -14.5109 -14.8961 32.1263 -14.5109
9365 1 -13.1973 -1.01248 -13.4967 -13.1973 -1.01248 -13.4967
8736 1 -12.3006 -2.53689 -14.4637 21.7131 -2.53689 -14.4637
13232 1 -11.1887 -2.39506 -14.5711 22.825 -2.39506 -14.5711
3855 1 -8.99024 -2.71631 -14.0402 -8.99024 -2.71631 19.9735
1336 1 -10.5845 -1.40599 -13.6965 -10.5845 -1.40599 -13.6965
9624 1 -8.38556 -2.24934 -15.3379 25.6281 -2.24934 -15.3379
14411 1 -7.92512 -1.33059 -14.4809 -7.92512 -1.33059 19.5328
3805 1 -9.53296 -1.59779 -14.1054 -9.53296 -1.59779 19.9083
8871 1 -6.29113 -2.46721 -14.6309 27.7226 -2.46721 -14.6309
3286 1 -5.11403 -1.66991 -14.9527 -5.11403 -1.66991 -14.9527
3839 1 -3.95697 -1.8942 -15.3067 -3.95697 -1.8942 18.707
1472 1 -1.31285 -2.12508 -14.8697 -1.31285 -2.12508 -14.8697
14299 1 -0.799608 -2.85003 -13.5334 -0.799608 -2.85003 -13.5334
9149 1 -16.4057 -1.93883 -15.4132 17.608 -1.93883 -15.4132
12753 1 -15.6873 -0.87837 -14.4124 18.3264 -0.87837 -14.4124
12538 1 -13.7385 -0.367314 -15.3462 20.2753 -0.367314 -15.3462
12986 1 -11.8732 -1.75558 -15.3195 -11.8732 -1.75558 -15.3195
5678 1 -11.2439 -0.229066 -15.7197 -11.2439 -0.229066 -15.7197
6925 1 -10.4235 -0.187053 -14.6368 -10.4235 33.8267 19.377
2560 1 -5.66728 -2.95646 -16.9017 -5.66728 -2.95646 17.112
3049 1 -16.2753 -5.9326 -1.03987 -16.2753 -5.9326 -1.03987
9361 1 -6.12665 -1.12271 -14.8356 -6.12665 -1.12271 -14.8356
11885 1 -1.52591 -3.19284 -0.900821 -1.52591 -3.19284 -0.900821
3835 1 -3.95982 -0.591001 -15.6222 -3.95982 -0.591001 18.3915
10391 1 -0.172994 -1.98108 -15.0924 -0.172994 -1.98108 -15.0924
2980 1 -1.15863 -0.848641 -14.6491 -1.15863 -0.848641 -14.6491
4859 1 -16.8644 -15.595 -14.1681 -16.8644 18.4187 -14.1681
7491 1 -0.321387 -10.5815 -5.72099 -34.3351 23.4323 -5.72099
4322 1 -15.9586 -15.2635 -12.841 -15.9586 18.7503 -12.841
1625 1 -14.5429 -16.138 -13.0662 -14.5429 -16.138 -13.0662
13408 1 -16.779 -15.4995 -1.45221 17.2347 18.5142 -1.45221
1193 1 -10.1111 -15.2752 -12.9043 -10.1111 -15.2752 -12.9043
2690 1 -9.16107 -16.0314 -13.2677 -9.16107 -16.0314 20.746
2298 1 -8.4592 -16.3077 -14.462 -8.4592 -16.3077 19.5517
7613 1 -9.72965 -16.0054 -14.2379 -9.72965 18.0083 19.7758
6420 1 -8.83716 -14.8694 -13.6421 -8.83716 19.1443 20.3716
4527 1 -16.0968 -16.5376 -1.67073 -16.0968 -16.5376 -1.67073
11513 1 -4.51028 -15.8119 -13.9178 -4.51028 -15.8119 20.0959
6016 1 -3.69525 -16.1641 -13.067 -3.69525 -16.1641 -13.067
6969 1 -2.62692 -16.8079 -13.6875 -2.62692 17.2058 20.3262
10250 1 -15.2503 -14.7035 -13.8845 18.7634 -14.7035 -13.8845
1514 1 -14.1366 -15.0657 -13.5797 -14.1366 -15.0657 -13.5797
2648 1 -13.2665 -15.8192 -13.2063 -13.2665 -15.8192 20.8075
8535 1 -12.4525 -15.1529 -13.7833 -12.4525 -15.1529 -13.7833
4321 1 -10.2361 -13.9955 -12.3323 -10.2361 -13.9955 -12.3323
15998 1 -5.43905 -16.0165 -13.2954 -5.43905 -16.0165 20.7183
5518 1 -7.51823 -15.0206 -13.2981 -7.51823 18.9931 -13.2981
321 1 -4.09832 -13.9932 -14.1308 -4.09832 -13.9932 -14.1308
11359 1 -3.01899 -14.1418 -14.1931 -3.01899 -14.1418 19.8207
13801 1 -3.65938 -14.6691 -12.6813 -3.65938 19.3446 -12.6813
5413 1 -2.16069 -14.1047 -13.0118 -2.16069 19.909 -13.0118
1229 1 -0.957709 -15.9267 -14.3091 -0.957709 -15.9267 -14.3091
10628 1 -0.741145 -14.5154 -13.4805 -0.741145 -14.5154 20.5332
3103 1 -15.6647 -12.2102 -13.6262 -15.6647 -12.2102 20.3875
8192 1 -16.2082 -13.927 -13.3765 -16.2082 20.0868 20.6372
16266 1 -14.7599 -13.4328 -13.3026 19.2538 20.5809 -13.3026
921 1 -13.449 -12.7729 -13.1334 -13.449 -12.7729 -13.1334
1414 1 -13.8338 -13.7093 -13.654 -13.8338 -13.7093 -13.654
2933 1 -12.6908 -14.0193 -13.2868 -12.6908 -14.0193 20.7269
12886 1 -11.3708 -13.6965 -13.5211 -11.3708 20.3172 -13.5211
7956 1 -10.1183 -12.6598 -12.7519 -10.1183 21.3539 -12.7519
7688 1 -9.55017 -13.78 -13.2584 -9.55017 -13.78 20.7553
3745 1 -8.78196 -13.503 -14.359 -8.78196 -13.503 19.6548
82 1 -7.86096 -14.0048 -13.3448 -7.86096 -14.0048 -13.3448
11234 1 -5.00656 -13.4294 -16.0821 -5.00656 -13.4294 17.9316
12550 1 -4.5744 -12.9411 -13.1097 -4.5744 -12.9411 -13.1097
5235 1 -6.55581 -13.3636 -13.986 -6.55581 -13.3636 -13.986
3882 1 -3.3343 -13.1551 -12.5691 -3.3343 -13.1551 -12.5691
5612 1 -1.38321 -13.5962 -11.9433 -1.38321 20.4175 -11.9433
254 1 -1.15712 -13.4238 -14.5993 -1.15712 -13.4238 -14.5993
4276 1 -15.8956 -11.1513 -14.5062 -15.8956 22.8624 -14.5062
1603 1 -14.4316 -11.9896 -14.4593 -14.4316 -11.9896 -14.4593
4814 1 -12.2729 -11.5078 -14.5974 -12.2729 22.506 -14.5974
10385 1 -13.5158 -11.2577 -13.3618 20.498 -11.2577 -13.3618
8960 1 -9.10636 -11.0812 -13.2213 24.9073 -11.0812 -13.2213
3070 1 -7.25519 -12.7832 -12.774 -7.25519 -12.7832 21.2397
4030 1 -6.65924 -12.2167 -14.9804 -6.65924 -12.2167 19.0333
7289 1 -6.13286 -13.0019 -12.3836 -6.13286 21.0119 21.6301
12295 1 -5.44968 -13.1094 -14.6739 -5.44968 -13.1094 19.3398
10853 1 -5.54435 -12.6125 -13.6152 -5.54435 -12.6125 -13.6152
12783 1 -2.94641 -12.0804 -13.5177 -2.94641 21.9333 -13.5177
8889 1 -1.91956 -13.0897 -13.2804 -1.91956 -13.0897 -13.2804
7166 1 -0.581917 -12.1471 -11.8515 -34.5956 21.8666 22.1622
1868 1 -16.4669 -10.3193 -15.2221 -16.4669 -10.3193 -15.2221
228 1 -16.2593 -12.2005 -15.9969 -16.2593 -12.2005 -15.9969
4923 1 -15.5336 -10.2685 -13.4991 -15.5336 23.7452 -13.4991
14050 1 -13.0604 -10.4492 -13.868 20.9533 23.5645 20.1458
8527 1 -11.7505 -11.1545 -13.49 22.2632 -11.1545 -13.49
9636 1 -10.401 -9.39433 -12.6073 -10.401 -9.39433 -12.6073
3604 1 -8.77969 -10.4662 -14.2547 -8.77969 -10.4662 19.759
13170 1 -7.95972 -9.19228 -13.7745 -7.95972 24.8214 -13.7745
1798 1 -7.74361 -11.5701 -14.0205 -7.74361 -11.5701 -14.0205
15986 1 -6.01145 -11.6116 -13.5327 -6.01145 -11.6116 20.481
6318 1 -4.44849 -9.18139 -13.6923 -4.44849 -9.18139 20.3214
6512 1 -4.35127 -10.9377 -13.4303 -4.35127 23.076 20.5835
8542 1 -3.15703 -9.8496 -13.1026 -3.15703 -9.8496 -13.1026
10615 1 -2.03737 -10.8033 -13.6654 -2.03737 -10.8033 20.3483
10844 1 -0.710642 -12.1602 -14.8874 -0.710642 -12.1602 19.1263
3355 1 -0.938579 -9.81331 -14.0315 -0.938579 -9.81331 19.9822
16370 1 -1.67979 -11.7237 -12.7475 -1.67979 22.29 21.2662
8500 1 -5.38587 -11.7932 -16.938 -5.38587 -11.7932 -16.938
13987 1 -14.4501 -8.55597 -12.8015 19.5636 -8.55597 -12.8015
5086 1 -13.6788 -8.68983 -14.2412 -13.6788 25.3239 19.7725
14101 1 -11.2564 -10.2369 -11.559 -11.2564 23.7768 -11.559
3748 1 -11.3587 -8.4546 -12.6302 -11.3587 -8.4546 21.3835
12785 1 -9.42884 -9.22664 -14.244 -9.42884 -9.22664 -14.244
1676 1 -10.2645 -7.61721 -13.0085 -10.2645 -7.61721 -13.0085
2022 1 -8.4527 -8.21427 -12.8402 -8.4527 -8.21427 -12.8402
3645 1 -7.02427 -10.3064 -13.2571 -7.02427 -10.3064 20.7566
7878 1 -6.10216 -8.36843 -13.8793 -6.10216 25.6453 20.1344
1831 1 -3.53202 -9.04584 -14.1635 -3.53202 -9.04584 -14.1635
2121 1 -1.82088 -9.54855 -13.177 -1.82088 -9.54855 -13.177
4474 1 -1.81581 -8.21398 -12.4852 -1.81581 25.7997 -12.4852
8937 1 -11.3305 -11.0101 -16.2217 22.6832 -11.0101 -16.2217
15695 1 -15.6799 -7.65959 -14.1034 18.3338 26.3541 19.9104
7447 1 -13.6152 -6.96117 -14.8258 -13.6152 -6.96117 19.1879
4316 1 -14.4339 -9.65178 -13.4841 -14.4339 24.3619 -13.4841
2381 1 -12.9978 -7.15393 -13.5842 -12.9978 -7.15393 20.4295
1710 1 -11.9113 -8.34278 -13.81 -11.9113 -8.34278 -13.81
15720 1 -12.1802 -7.65791 -12.7018 21.8335 -7.65791 21.3119
320 1 -7.96967 -8.08636 -14.1315 -7.96967 -8.08636 -14.1315
11915 1 -4.91458 -6.48204 -13.8373 -4.91458 -6.48204 20.1764
2075 1 -4.95947 -7.38964 -13.0015 -4.95947 -7.38964 21.0122
9916 1 -2.73059 -7.65525 -13.2602 -2.73059 -7.65525 -13.2602
9990 1 -1.18916 -6.95112 -13.6155 -1.18916 -6.95112 -13.6155
8968 1 -0.441324 -8.73489 -13.7292 -0.441324 -8.73489 -13.7292
1065 1 -0.866449 -12.7996 -16.1669 -0.866449 -12.7996 -16.1669
4941 1 -0.182361 -6.78417 -15.1536 -0.182361 27.2295 -15.1536
14547 1 -16.0217 -6.6584 -13.4148 17.9921 -6.6584 20.5989
224 1 -14.8507 -6.04183 -14.2994 -14.8507 -6.04183 -14.2994
5627 1 -16.3333 -6.64494 -14.8394 -16.3333 -6.64494 -14.8394
12483 1 -9.38601 -5.47882 -13.8197 -9.38601 -5.47882 -13.8197
845 1 -11.3069 -7.05245 -13.4769 -11.3069 -7.05245 -13.4769
1593 1 -8.82929 -5.98164 -11.9636 -8.82929 -5.98164 -11.9636
9089 1 -9.75294 -6.82997 -13.6812 -9.75294 -6.82997 -13.6812
8225 1 -8.26316 -5.64876 -13.5582 -8.26316 -5.64876 -13.5582
7035 1 -7.02411 -6.73511 -13.6419 -7.02411 27.2786 20.3718
8390 1 -5.96117 -5.66198 -13.4433 -5.96117 -5.66198 -13.4433
5203 1 -3.99689 -6.00852 -13.087 -38.0106 -6.00852 -13.087
8384 1 -5.34591 -5.77969 -14.6487 -5.34591 -5.77969 -14.6487
7702 1 -3.18046 -6.27976 -12.5699 -3.18046 -6.27976 21.4438
14414 1 -2.29846 -6.50721 -13.7093 -2.29846 -6.50721 20.3045
1677 1 -2.29215 -4.98196 -14.6018 -2.29215 -4.98196 -14.6018
1248 1 -0.109733 -6.90802 -13.7781 -0.109733 -6.90802 -13.7781
6725 1 -13.7011 -5.62963 -13.6785 -13.7011 -5.62963 20.3352
4753 1 -11.3963 -5.72374 -13.8532 -11.3963 -5.72374 -13.8532
10506 1 -8.29962 -3.8627 -13.7361 25.7141 -3.8627 20.2776
9544 1 -6.05691 -4.30698 -12.7863 -6.05691 -4.30698 -12.7863
8984 1 -5.10168 -4.97372 -12.7008 -5.10168 -4.97372 -12.7008
3078 1 -4.96085 -3.42958 -12.8783 -4.96085 -3.42958 -12.8783
476 1 -3.70116 -5.72015 -14.4383 -3.70116 -5.72015 -14.4383
5230 1 -1.3385 -4.14749 -13.3376 -1.3385 -4.14749 -13.3376
5665 1 -10.175 -2.34168 -16.5315 -10.175 -2.34168 -16.5315
9620 1 -15.5094 -3.72101 -14.4818 18.5043 -3.72101 -14.4818
9666 1 -15.4238 -3.29208 -12.9966 18.5899 -3.29208 -12.9966
1110 1 -13.9343 -3.43525 -11.7935 -13.9343 -3.43525 -11.7935
4904 1 -14.2676 -4.48275 -13.7209 -14.2676 -4.48275 -13.7209
1527 1 -11.9543 -3.52985 -13.2863 -11.9543 -3.52985 -13.2863
3574 1 -13.6812 -2.27801 -13.8505 -13.6812 -2.27801 20.1632
5332 1 -13.6059 -3.59303 -13.7309 -13.6059 -3.59303 20.2828
4849 1 -10.676 -3.46795 -14.0632 -10.676 30.5458 19.9505
622 1 -9.63699 -4.31767 -12.7828 -9.63699 -4.31767 -12.7828
5352 1 -7.71349 -2.80585 -13.6803 -7.71349 -2.80585 -13.6803
5220 1 -7.28127 -2.9964 -14.8205 -7.28127 -2.9964 -14.8205
5087 1 -7.15662 -4.59709 -13.5033 -7.15662 -4.59709 -13.5033
10130 1 -7.22603 -3.45509 -12.9711 26.7877 -3.45509 -12.9711
1741 1 -5.55171 -3.83782 -13.7139 -5.55171 -37.8515 -13.7139
4263 1 -4.06538 -2.49261 -13.7503 -4.06538 -2.49261 -13.7503
4386 1 -3.09118 -3.10759 -13.5759 -3.09118 -3.10759 -13.5759
5317 1 -2.2527 -3.5685 -12.5848 -2.2527 -3.5685 -12.5848
8322 1 -1.97835 -5.63725 -12.7923 -1.97835 -5.63725 -12.7923
15544 1 -0.324533 -4.40153 -14.0989 -0.324533 -4.40153 19.9148
7197 1 -14.9809 -2.02415 -12.8713 -14.9809 -2.02415 21.1424
9079 1 -14.2507 -0.867778 -14.5021 19.763 -0.867778 -14.5021
233 1 -13.8113 -1.82806 -12.5496 -13.8113 -1.82806 -12.5496
4403 1 -12.1563 -2.35896 -13.3308 -12.1563 -2.35896 -13.3308
14073 1 -10.9783 -2.80022 -13.0453 -10.9783 -2.80022 -13.0453
7404 1 -8.8148 -2.82857 -12.1811 -8.8148 -2.82857 21.8326
676 1 -7.684 -0.96765 -12.9828 -7.684 -0.96765 -12.9828
1878 1 -6.38276 -2.42477 -13.4547 -6.38276 -2.42477 -13.4547
3095 1 -4.30166 -2.26442 -12.0144 -4.30166 -2.26442 21.9993
1679 1 -2.21823 -2.3478 -13.875 -2.21823 -2.3478 -13.875
13619 1 -16.0262 -15.0471 -0.544113 17.9875 -15.0471 -0.544113
10727 1 -15.3122 -10.3473 -0.514862 18.7015 -10.3473 -0.514862
9956 1 -0.575527 -10.1475 -3.59427 -0.575527 -10.1475 -3.59427
14911 1 -11.9097 -0.88503 -12.762 22.104 -0.88503 21.2517
14786 1 -11.4038 -0.0698195 -14.265 22.6099 -0.0698195 19.7487