ITEM: TIMESTEP
0
ITEM: NUMBER OF ATOMS
16384
ITEM: BOX BOUNDS pp pp pp
-1.7006855707231768e+01 1.7006855707231768e+01
-1.7006855707231768e+01 1.7006855707231768e+01
-1.7006855707231768e+01 1.7006855707231768e+01
ITEM: ATOMS id type x y z xu yu zu
11628 1 -16.2894 -15.8058 -16.5257 17.7243 -15.8058 17.488
10534 1 -16.0624 -16.8035 -15.7281 17.9514 -16.8035 18.2856
8923 1 -13.0686 -16.2106 -16.2344 -13.0686 -16.2106 -16.2344
10801 1 -13.7382 -16.0678 -16.9915 20.2756 17.9459 17.0222
4438 1 -10.8837 -16.5701 -16.4099 -10.8837 17.4436 -16.4099
1645 1 -7.25349 -16.6739 -17.0018 -7.25349 -16.6739 -17.0018
4519 1 -7.46832 -15.8645 -15.6311 -7.46832 18.1492 -15.6311
7718 1 -5.69469 -16.3986 -16.2695 -5.69469 17.6151 17.7442
11359 1 -4.7178 -15.6933 -16.1786 -4.7178 -15.6933 17.8351
1461 1 -3.70489 -16.181 -15.7941 -3.70489 -16.181 -15.7941
1661 1 -2.16899 -16.243 -16.4491 -2.16899 -16.243 -16.4491
10492 1 -0.583381 -16.0073 -16.1631 -0.583381 -16.0073 17.8506
16266 1 -16.0457 -15.1476 -15.6888 17.9681 18.8661 -15.6888
6866 1 -14.8223 -15.4786 -16.3429 -14.8223 18.5352 17.6708
2939 1 -13.9466 -14.2854 -16.9237 -13.9466 -14.2854 17.09
13995 1 -11.8546 -15.437 -16.3912 -11.8546 18.5767 -16.3912
4814 1 -12.4214 -14.2104 -16.3016 -12.4214 19.8033 -16.3016
9994 1 -10.6371 -15.3937 -16.048 23.3766 -15.3937 -16.048
12208 1 -9.86311 -14.708 -15.8193 24.1506 -14.708 18.1944
2162 1 -8.57469 -15.5863 -16.8393 -8.57469 -15.5863 17.1744
3010 1 -7.9437 -14.4045 -15.9694 -7.9437 -14.4045 18.0443
12118 1 -6.87614 -14.4833 -16.2895 -6.87614 -14.4833 -16.2895
7864 1 -5.57263 -14.7866 -16.0702 -5.57263 19.2271 17.9435
910 1 -3.68525 -14.2406 -15.8522 -3.68525 -14.2406 -15.8522
8838 1 -2.54078 -14.6047 -15.9049 -2.54078 -14.6047 -15.9049
15863 1 -1.15665 -15.0719 -16.3669 -1.15665 18.9418 17.6469
736 1 -16.6006 -12.8995 -16.0387 -16.6006 -12.8995 -16.0387
11682 1 -16.0788 -13.5569 -16.886 17.9349 -13.5569 17.1277
10387 1 -14.8582 -14.0944 -16.1262 19.1556 -14.0944 17.8876
11940 1 -14.8079 -12.9613 -16.853 19.2058 -12.9613 17.1607
2933 1 -11.1259 -13.5507 -15.9839 -11.1259 -13.5507 18.0298
5767 1 -9.16488 -14.0159 -16.2554 -9.16488 19.9978 -16.2554
5478 1 -9.00516 -12.8766 -16.4444 -9.00516 21.1372 -16.4444
312 1 -7.75787 -13.1857 -15.9984 -7.75787 -13.1857 18.0153
13970 1 -5.85138 -13.7288 -15.9826 -5.85138 -13.7288 -15.9826
13343 1 -4.68546 -12.9255 -15.8012 -4.68546 21.0882 -15.8012
618 1 -3.40558 -13.146 -15.6305 -3.40558 -13.146 -15.6305
7564 1 -1.67585 -13.6541 -16.157 -1.67585 20.3596 17.8567
10752 1 -2.58136 -13.1496 -16.8209 -2.58136 -13.1496 17.1928
5990 1 -0.341297 -13.123 -16.5539 -0.341297 -13.123 -16.5539
9992 1 -0.494998 -14.1363 -16.9325 33.5187 -14.1363 -16.9325
4910 1 -16.8822 -11.7953 -16.8614 -16.8822 -11.7953 -16.8614
2794 1 -15.7808 -12.2611 -16.5275 -15.7808 -12.2611 17.4862
3471 1 -12.8278 -12.5273 -16.363 -12.8278 -12.5273 17.6507
8635 1 -13.9614 -12.4275 -16.6866 20.0523 -12.4275 -16.6866
1306 1 -12.0251 -11.5782 -16.3286 -12.0251 -11.5782 -16.3286
6272 1 -10.8661 -12.4313 -16.6257 -10.8661 21.5824 17.388
11422 1 -7.28766 -12.0141 -16.8001 26.7261 -12.0141 17.2136
3604 1 -8.46131 -12.0977 -16.0072 -8.46131 -12.0977 18.0065
9592 1 -6.08207 -11.5003 -16.0983 -6.08207 -11.5003 -16.0983
10664 1 -6.1246 -12.5356 -16.6615 27.8891 -12.5356 17.3522
11401 1 -3.87023 -11.7273 -16.0165 -3.87023 -11.7273 17.9972
8542 1 -1.43149 -11.8158 -16.3705 -1.43149 -11.8158 -16.3705
6397 1 -0.246956 -12.0457 -15.8968 -0.246956 21.968 18.1169
9875 1 -16.6175 -10.5687 -16.5002 17.3962 -10.5687 -16.5002
10276 1 -14.6308 -11.3322 -16.137 19.3829 -11.3322 -16.137
508 1 -15.5392 -9.9349 -16.2436 -15.5392 -9.9349 17.7701
1228 1 -14.4163 -10.2513 -16.8879 -14.4163 -10.2513 -16.8879
1433 1 -13.2096 -10.7218 -16.3707 -13.2096 -10.7218 -16.3707
1278 1 -11.1888 -10.1855 -15.9627 -11.1888 -10.1855 -15.9627
1327 1 -10.4872 -11.1771 -15.9949 -10.4872 -11.1771 -15.9949
4023 1 -9.35298 -10.8053 -16.6292 -9.35298 -10.8053 17.3845
2163 1 -8.35266 -10.0512 -15.9418 -8.35266 -10.0512 18.0719
15352 1 -6.96535 -10.5924 -16.5879 27.0484 -10.5924 17.4258
271 1 -4.98078 -11.1399 -15.9753 -4.98078 -11.1399 -15.9753
2063 1 -4.21965 -10.3514 -16.6419 -4.21965 -10.3514 17.3718
10788 1 -2.38815 -10.8702 -16.2409 31.6256 -10.8702 17.7728
10844 1 -1.25108 -10.867 -15.6061 -1.25108 -10.867 18.4076
2882 1 -0.787659 -11.113 -16.9613 -0.787659 -11.113 17.0524
8288 1 -16.9444 -9.08832 -15.9138 17.0693 -9.08832 -15.9138
11143 1 -14.5345 -9.1013 -16.0907 19.4792 -9.1013 17.923
1378 1 -13.3612 -9.52379 -16.7799 -13.3612 -9.52379 -16.7799
7013 1 -12.3456 -9.0332 -16.5967 -12.3456 24.9805 17.417
8774 1 -10.6363 -9.03319 -16.7529 -10.6363 -9.03319 -16.7529
12072 1 -9.94181 -9.18031 -15.7225 24.0719 -9.18031 18.2912
2449 1 -8.50623 -8.80583 -16.8053 -8.50623 -8.80583 17.2085
3547 1 -7.63393 -8.65917 -15.7821 -7.63393 -8.65917 18.2316
3816 1 -5.77981 -9.68578 -16.2102 -5.77981 -9.68578 17.8035
1853 1 -6.66211 -8.76631 -16.5375 -6.66211 -8.76631 -16.5375
2393 1 -4.2834 -9.09701 -16.653 -4.2834 -9.09701 -16.653
10615 1 -3.25568 -9.69282 -15.9698 -3.25568 -9.69282 18.0439
9347 1 -2.72806 -9.07529 -16.9816 31.2857 -9.07529 -16.9816
8581 1 -0.997559 -9.19289 -16.5007 -0.997559 -9.19289 -16.5007
11854 1 -16.3349 -7.9282 -16.2693 17.6788 -7.9282 17.7444
1198 1 -15.6 -7.25961 -16.6249 -15.6 -7.25961 -16.6249
9864 1 -15.347 -8.34477 -15.6615 -15.347 -8.34477 -15.6615
10072 1 -13.404 -7.96165 -16.2187 20.6097 -7.96165 -16.2187
1070 1 -12.4532 -7.47102 -16.6419 -12.4532 -7.47102 -16.6419
1657 1 -9.94389 -7.95582 -15.7799 -9.94389 -7.95582 -15.7799
702 1 -9.57687 -7.52014 -16.8706 -9.57687 -7.52014 -16.8706
12672 1 -8.46962 -7.43374 -16.3289 25.5441 -7.43374 -16.3289
4328 1 -7.28271 -7.11156 -16.9218 -7.28271 -7.11156 -16.9218
12459 1 -5.79302 -7.87718 -16.0003 -5.79302 26.1365 -16.0003
1321 1 -4.49876 -7.6121 -15.851 -4.49876 -7.6121 -15.851
9916 1 -3.6579 -7.6287 -16.5804 -3.6579 -7.6287 -16.5804
3995 1 -2.15394 -7.93299 -16.876 -2.15394 -7.93299 17.1377
1612 1 -1.06374 -7.70331 -16.7211 -1.06374 -7.70331 -16.7211
3082 1 -0.139321 -7.09832 -16.2144 -0.139321 -7.09832 17.7993
2588 1 -0.0590516 -8.36357 -15.9767 -0.0590516 -8.36357 -15.9767
898 1 -16.0387 -6.66878 -15.7875 -16.0387 -6.66878 -15.7875
10912 1 -13.8005 -6.29169 -16.3435 20.2132 -6.29169 17.6702
367 1 -11.6091 -6.60216 -16.6369 -11.6091 -6.60216 -16.6369
704 1 -12.69 -6.01864 -15.8367 -12.69 -6.01864 -15.8367
10909 1 -12.7067 -5.86146 -16.9953 21.307 -5.86146 17.0184
13232 1 -10.5821 -6.14304 -16.836 23.4316 -6.14304 -16.836
3592 1 -10.5274 -6.19878 -15.7019 -10.5274 -6.19878 18.3118
11335 1 -9.39627 -6.54148 -16.0534 24.6174 -6.54148 -16.0534
9281 1 -8.30532 -5.85959 -16.8908 25.7084 -5.85959 -16.8908
461 1 -5.23455 -6.6615 -16.0566 -5.23455 -6.6615 -16.0566
10134 1 -3.94915 -6.29545 -16.9483 -3.94915 -6.29545 -16.9483
7878 1 -3.2954 -5.85263 -15.7964 -3.2954 28.1611 18.2173
7029 1 -1.96368 -6.96787 -15.7285 -1.96368 27.0458 18.2853
5089 1 -1.23158 -6.40404 -16.2249 -1.23158 -6.40404 -16.2249
865 1 -15.8985 -4.37506 -15.6345 -15.8985 -4.37506 -15.6345
1862 1 -15.444 -5.56306 -16.4524 -15.444 -5.56306 -16.4524
13684 1 -14.5143 -4.76882 -16.8214 19.4994 -4.76882 -16.8214
2906 1 -13.3973 -4.89467 -16.3285 -13.3973 -4.89467 17.6852
3855 1 -11.3587 -4.39828 -16.9058 -11.3587 -4.39828 17.1079
14117 1 -12.1611 -4.77498 -16.0051 -12.1611 -4.77498 -16.0051
13514 1 -8.93359 -4.95926 -15.8071 -8.93359 -4.95926 -15.8071
7782 1 -9.87098 -4.34228 -16.5243 -9.87098 -4.34228 17.4894
5974 1 -8.15349 -4.36141 -16.7577 -8.15349 -4.36141 -16.7577
12771 1 -6.60044 -5.37746 -16.0805 -6.60044 28.6363 -16.0805
6701 1 -5.1646 -4.67688 -16.6066 -5.1646 -4.67688 17.4071
15213 1 -0.0669514 -5.61119 -16.4599 -0.0669514 28.4025 17.5538
6519 1 -1.06021 -4.80034 -15.9722 -1.06021 -4.80034 18.0415
2252 1 -0.28199 -4.30215 -16.9641 -0.28199 -4.30215 17.0496
9410 1 -16.6876 -3.22542 -16.0181 17.3261 -3.22542 -16.0181
2288 1 -15.6167 -4.23727 -16.803 -15.6167 -4.23727 17.2108
15571 1 -14.7393 -2.99205 -16.1637 19.2744 -2.99205 17.85
2832 1 -14.4485 -3.91792 -15.7765 -14.4485 -3.91792 18.2372
6725 1 -13.5246 -2.86268 -16.76 -13.5246 -2.86268 17.2537
11830 1 -12.5733 -3.71714 -16.278 21.4404 -3.71714 17.7357
3574 1 -11.5788 -3.02339 -16.5807 -11.5788 -3.02339 17.433
13159 1 -6.16079 -3.34866 -16.8915 -6.16079 -3.34866 -16.8915
3839 1 -3.46457 -4.24621 -15.7319 -3.46457 -4.24621 18.2818
2560 1 -4.141 -3.65861 -16.6829 -4.141 -3.65861 17.3308
3813 1 -1.46302 -3.13149 -16.6771 -1.46302 -3.13149 17.3366
10407 1 -2.20859 -3.95225 -15.7183 -2.20859 -3.95225 -15.7183
11530 1 -15.8245 -2.31103 -16.1092 18.1892 -2.31103 17.9045
2366 1 -13.4025 -1.94135 -16.1292 -13.4025 -1.94135 17.8845
1769 1 -12.5056 -1.58121 -16.4499 -12.5056 -1.58121 -16.4499
5352 1 -11.4569 -1.60209 -15.897 -11.4569 -1.60209 -15.897
9624 1 -10.3071 -2.47771 -16.5173 23.7066 -2.47771 -16.5173
5131 1 -9.8313 -1.43852 -16.4473 -9.8313 -1.43852 -16.4473
6925 1 -8.88832 -2.39008 -15.8225 -8.88832 31.6236 18.1912
1279 1 -7.18494 -2.7727 -16.7018 -7.18494 -2.7727 -16.7018
1487 1 -7.10198 -1.57724 -16.7016 -7.10198 -1.57724 -16.7016
12301 1 -6.42478 -2.69604 -15.6956 -6.42478 -2.69604 18.3181
7492 1 -5.00099 -1.91523 -16.3149 -5.00099 -1.91523 17.6989
15377 1 -3.76114 -2.74661 -16.5566 30.2526 -2.74661 17.4571
3835 1 -3.81908 -1.61889 -15.6577 -3.81908 -1.61889 18.356
476 1 -2.2072 -2.33278 -15.9913 -2.2072 -2.33278 -15.9913
7710 1 -0.688375 -2.23573 -15.6772 -0.688375 -2.23573 18.3366
14886 1 -16.2529 -1.3311 -15.7793 17.7608 -1.3311 18.2344
233 1 -15.1675 -0.551536 -16.0582 -15.1675 -0.551536 -16.0582
2701 1 -13.6144 -0.813591 -15.7702 -13.6144 -0.813591 18.2435
6440 1 -13.6235 -0.677529 -16.8703 -13.6235 -0.677529 17.1434
11317 1 -11.3553 -0.499877 -15.638 22.6585 -0.499877 18.3757
2726 1 -11.0351 -0.493467 -16.8327 -11.0351 -0.493467 17.181
2250 1 -9.14381 -0.74287 -16.6936 -9.14381 -0.74287 17.3201
13268 1 -7.8182 -0.357855 -16.5331 -7.8182 -0.357855 -16.5331
10781 1 -5.89915 -0.942466 -16.7659 -5.89915 -0.942466 17.2478
4263 1 -5.03457 -0.582388 -15.8928 -5.03457 -0.582388 -15.8928
1472 1 -1.80445 -1.12577 -16.1872 -1.80445 -1.12577 -16.1872
6672 1 -0.452026 -1.22691 -15.9359 -0.452026 -1.22691 18.0778
7981 1 -14.7847 -16.1227 -15.0956 -14.7847 17.891 18.9181
2300 1 -13.3412 -16.3401 -15.077 -13.3412 -16.3401 18.9367
13193 1 -10.7337 -16.4456 -14.9474 23.28 17.5682 -14.9474
15997 1 -9.21235 -16.3263 -15.5422 -9.21235 17.6874 18.4715
5237 1 -8.19391 -16.8301 -15.09 -8.19391 17.1836 18.9237
15205 1 -6.45093 -16.412 -15.5111 27.5628 17.6018 18.5026
4914 1 -4.63359 -16.0637 -15.0571 -4.63359 17.95 -15.0571
8493 1 -4.57204 -16.9211 -14.2035 29.4417 -16.9211 -14.2035
13151 1 -3.53255 -15.8654 -14.2674 -3.53255 18.1483 -14.2674
15558 1 -2.47317 -16.5574 -15.4472 -2.47317 17.4563 18.5665
10084 1 -2.1341 -16.4994 -14.1898 -2.1341 -16.4994 -14.1898
15673 1 -1.14582 -16.08 -14.9574 -1.14582 17.9337 19.0563
5989 1 -16.7655 -15.2217 -14.7627 -16.7655 18.792 -14.7627
2114 1 -16.051 -14.6322 -14.3623 -16.051 -14.6322 19.6514
1625 1 -14.7579 -14.5792 -14.8045 -14.7579 -14.5792 -14.8045
6463 1 -13.6041 -15.2631 -14.4541 -13.6041 18.7506 19.5596
14994 1 -11.6852 -15.3092 -14.7853 22.3285 18.7046 19.2284
3967 1 -12.7172 -14.4569 -14.7834 -12.7172 -14.4569 19.2303
7734 1 -10.7887 -14.2397 -14.7902 -10.7887 19.774 19.2235
7613 1 -8.68671 -15.2278 -15.3334 -8.68671 18.7859 18.6803
1193 1 -9.76858 -15.5266 -14.6168 -9.76858 -15.5266 -14.6168
10048 1 -6.71783 -14.9693 -15.0553 -6.71783 -14.9693 -15.0553
15998 1 -5.51455 -15.3973 -15.2292 -5.51455 -15.3973 18.7845
1339 1 -4.0414 -14.9247 -15.0397 -4.0414 -14.9247 -15.0397
11513 1 -3.22919 -14.6348 -14.4525 -3.22919 -14.6348 19.5612
9996 1 -2.05411 -15.3302 -14.361 31.9596 -15.3302 -14.361
395 1 -0.634862 -14.46 -14.373 -0.634862 -14.46 -14.373
7695 1 -16.4347 -13.2666 -14.2149 -16.4347 20.7471 19.7989
8847 1 -15.2732 -13.6937 -14.8151 18.7406 -13.6937 -14.8151
1414 1 -13.9432 -13.5691 -15.5242 -13.9432 -13.5691 -15.5242
1514 1 -13.6413 -13.7466 -14.4162 -13.6413 -13.7466 -14.4162
12886 1 -10.4837 -13.2108 -14.2083 -10.4837 20.8029 -14.2083
4829 1 -9.44286 -13.9864 -14.8076 -9.44286 20.0273 -14.8076
3899 1 -9.07776 -12.8451 -15.1703 -9.07776 -12.8451 18.8434
5482 1 -7.42138 -13.9643 -14.7083 -7.42138 20.0494 -14.7083
14809 1 -7.60107 -12.7692 -14.4618 -7.60107 -12.7692 -14.4618
15533 1 -6.01446 -13.2798 -14.906 -6.01446 -13.2798 -14.906
11234 1 -4.66028 -13.708 -14.6171 -4.66028 -13.708 19.3966
2128 1 -3.84388 -12.9456 -14.283 -3.84388 -12.9456 19.7307
5486 1 -2.43819 -13.8681 -14.5805 -2.43819 20.1456 -14.5805
10478 1 -0.662299 -12.8816 -15.4312 -0.662299 -12.8816 18.5825
14050 1 -15.6039 -12.4799 -15.0573 18.4099 21.5338 18.9564
4146 1 -14.2851 -12.4074 -15.2265 -14.2851 21.6063 -15.2265
921 1 -15.525 -11.4941 -14.3281 -15.525 -11.4941 -14.3281
10243 1 -13.4791 -12.3043 -14.4115 -13.4791 -12.3043 -14.4115
11950 1 -12.2856 -12.6428 -15.1803 21.7281 -12.6428 18.8334
8960 1 -10.9916 -12.5307 -15.3001 23.0221 -12.5307 -15.3001
13199 1 -10.086 -11.4741 -14.9023 -10.086 22.5396 -14.9023
3531 1 -8.61101 -11.3566 -14.6477 -8.61101 -11.3566 19.366
602 1 -7.73929 -11.5909 -15.3585 -7.73929 -11.5909 -15.3585
1795 1 -6.75986 -12.3507 -15.5255 -6.75986 -12.3507 -15.5255
3460 1 -6.8525 -11.7778 -14.5112 -6.8525 -11.7778 -14.5112
4030 1 -4.25972 -11.8065 -14.8909 -4.25972 -11.8065 19.1228
839 1 -5.06562 -12.2138 -14.4213 -5.06562 -12.2138 -14.4213
2010 1 -1.66894 -12.6712 -14.6978 -1.66894 -12.6712 19.3159
3884 1 -2.78197 -11.8319 -15.3065 -2.78197 -11.8319 18.7072
3302 1 -16.2798 -10.9161 -15.4531 -16.2798 -10.9161 18.5606
1348 1 -14.9976 -10.367 -14.8892 -14.9976 -10.367 -14.8892
2569 1 -13.6315 -11.3146 -15.4132 -13.6315 -11.3146 18.6005
2868 1 -12.7283 -10.7267 -15.1721 -12.7283 -10.7267 18.8416
6731 1 -11.5845 -10.6376 -14.5178 -11.5845 23.3761 19.4959
13170 1 -9.53674 -10.0842 -14.6765 -9.53674 23.9295 -14.6765
5116 1 -7.55637 -10.1747 -14.6509 -7.55637 -10.1747 -14.6509
3906 1 -6.41919 -10.3785 -15.4706 -6.41919 -10.3785 18.5431
4665 1 -5.63105 -10.5425 -14.6608 -5.63105 23.4712 -14.6608
11063 1 -3.81373 -10.6257 -15.1923 -3.81373 -10.6257 18.8214
9355 1 -1.98815 -10.2859 -15.0509 -1.98815 -10.2859 18.9628
6318 1 -2.80311 -11.1897 -14.5345 -2.80311 -11.1897 19.4792
6230 1 -0.585315 -11.3174 -14.4608 -0.585315 -11.3174 19.5529
4310 1 -15.9057 -9.33318 -15.0567 -15.9057 24.6805 -15.0567
5723 1 -14.0006 -9.71485 -14.7992 -14.0006 24.2989 -14.7992
8583 1 -13.891 -8.5972 -15.4781 -13.891 -8.5972 -15.4781
8965 1 -12.2405 -9.49908 -15.184 21.7732 -9.49908 -15.184
8072 1 -10.6539 -9.78444 -15.0992 -10.6539 24.2293 18.9146
14101 1 -8.73085 -9.47167 -15.0938 -8.73085 24.542 -15.0938
13515 1 -6.38898 -8.71852 -15.1354 27.6247 -8.71852 -15.1354
3125 1 -4.32028 -9.51158 -15.3377 -4.32028 -9.51158 18.676
4474 1 -2.1137 -9.42215 -15.5617 -2.1137 24.5916 -15.5617
10790 1 -1.92485 -8.7483 -14.401 -1.92485 -8.7483 19.6127
9990 1 -0.495081 -9.52574 -14.811 -0.495081 -9.52574 -14.811
1955 1 -14.4853 -7.15673 -15.2218 -14.4853 -7.15673 -15.2218
12128 1 -14.6397 -7.704 -14.3611 -14.6397 -7.704 -14.3611
8388 1 -13.4641 -7.21644 -15.4591 -13.4641 -7.21644 -15.4591
15695 1 -13.2877 -8.39329 -14.2844 20.726 25.6204 19.7293
9509 1 -12.5216 -8.27135 -15.4236 -12.5216 -8.27135 -15.4236
6218 1 -11.5774 -7.92062 -15.5559 -11.5774 26.0931 18.4578
8841 1 -12.0852 -7.65448 -14.3362 21.9285 -7.65448 -14.3362
1145 1 -10.4646 -7.86526 -14.4852 -10.4646 -7.86526 -14.4852
9539 1 -8.73753 -8.3737 -15.0734 -8.73753 -8.3737 -15.0734
10702 1 -7.81788 -8.48046 -14.3244 -7.81788 -8.48046 19.6893
1593 1 -5.74969 -7.30488 -14.5359 -5.74969 -7.30488 -14.5359
15403 1 -5.13895 -8.44265 -14.9391 -5.13895 -8.44265 19.0746
1831 1 -3.60799 -8.48665 -15.0637 -3.60799 -8.48665 -15.0637
320 1 -3.80718 -7.19536 -14.7664 -3.80718 -7.19536 -14.7664
350 1 -2.27083 -7.94166 -15.1986 -2.27083 -7.94166 -15.1986
3355 1 -1.05828 -8.12496 -15.2448 -1.05828 -8.12496 18.7689
11824 1 -15.8058 -6.91486 -14.529 18.2079 -6.91486 19.4847
9267 1 -14.3559 -6.23848 -14.8087 19.6578 -6.23848 -14.8087
13964 1 -12.9912 -6.3752 -14.4217 -12.9912 -6.3752 -14.4217
8777 1 -11.7635 -6.42266 -14.56 -11.7635 -6.42266 19.4538
8225 1 -10.5791 -5.76493 -14.2032 -10.5791 -5.76493 -14.2032
15587 1 -8.99671 -7.05936 -15.2933 25.017 -7.05936 18.7204
13013 1 -8.74675 -5.96676 -15.0282 -8.74675 28.047 -15.0282
2169 1 -6.01399 -6.08687 -15.0092 -6.01399 -6.08687 19.0045
150 1 -6.96733 -6.9376 -15.1193 -6.96733 -6.9376 -15.1193
5203 1 -3.97816 -5.94295 -14.8207 -37.9919 -5.94295 -14.8207
8968 1 -1.47428 -6.88644 -14.7515 -1.47428 -6.88644 -14.7515
1666 1 -2.2677 -5.86717 -15.5724 -2.2677 -5.86717 -15.5724
16127 1 -0.366488 -5.88714 -15.2056 -0.366488 -5.88714 18.8081
13146 1 -16.0836 -5.41626 -15.4748 17.9301 -5.41626 -15.4748
16163 1 -15.153 -5.13124 -14.7152 18.8607 -5.13124 19.2985
5727 1 -13.5583 -4.94011 -14.7716 -13.5583 -4.94011 -14.7716
12124 1 -11.7354 -5.38332 -15.069 -11.7354 -5.38332 -15.069
10453 1 -10.079 -5.07384 -14.9804 23.9347 -5.07384 19.0333
9544 1 -8.09439 -5.12944 -14.8735 -8.09439 -5.12944 -14.8735
10875 1 -6.53189 -4.74135 -14.4861 27.4818 -4.74135 19.5276
3977 1 -4.51292 -5.10792 -15.5019 -4.51292 -5.10792 18.5118
762 1 -5.40281 -5.27403 -14.45 -5.40281 -5.27403 -14.45
11257 1 -3.13466 -5.0608 -15.0515 -3.13466 -5.0608 18.9622
1606 1 -2.07196 -5.24091 -14.684 -2.07196 -5.24091 -14.684
2242 1 -0.777984 -4.76494 -14.6848 -0.777984 -4.76494 19.329
5891 1 -15.029 -4.01663 -14.3742 -15.029 -4.01663 -14.3742
5221 1 -13.1624 -3.60174 -14.348 -13.1624 30.412 19.6657
224 1 -12.0631 -3.46608 -14.698 -12.0631 -3.46608 -14.698
4849 1 -10.6028 -3.83455 -15.4931 -10.6028 30.1792 18.5206
622 1 -10.162 -4.03922 -14.2412 -10.162 -4.03922 -14.2412
11751 1 -9.43105 -3.39984 -15.3351 24.5827 -3.39984 18.6786
3805 1 -8.08327 -3.89869 -15.5268 -8.08327 -3.89869 18.4869
3147 1 -7.04441 -3.57855 -14.2783 -7.04441 -3.57855 19.7354
9563 1 -6.42899 -4.11507 -15.5455 27.5847 -4.11507 -15.5455
11231 1 -5.15362 -4.21052 -15.2769 -5.15362 -4.21052 18.7368
1741 1 -4.17385 -3.92999 -14.2167 -4.17385 -37.9437 -14.2167
2026 1 -4.11036 -3.27997 -15.3603 -4.11036 -37.2937 -15.3603
5317 1 -2.68348 -3.16153 -14.6565 -2.68348 -3.16153 -14.6565
9082 1 -0.833681 -3.71071 -14.7518 -0.833681 -3.71071 -14.7518
554 1 -16.7601 -2.0433 -14.4173 -16.7601 -2.0433 -14.4173
15392 1 -15.7767 -2.25214 -14.8667 18.237 -2.25214 19.147
5076 1 -14.361 -2.81961 -14.8339 -14.361 31.1941 -14.8339
9365 1 -14.7359 -1.52696 -15.1455 -14.7359 -1.52696 -15.1455
10268 1 -12.9818 -2.5555 -15.4289 21.0319 -2.5555 -15.4289
8736 1 -13.1119 -1.67258 -14.41 20.9018 -1.67258 -14.41
7698 1 -10.5046 -2.32976 -14.9453 -10.5046 -2.32976 19.0685
5665 1 -9.43718 -1.76458 -15.0126 -9.43718 -1.76458 -15.0126
1878 1 -7.47056 -2.52741 -15.1916 -7.47056 -2.52741 -15.1916
9593 1 -8.2306 -2.36 -14.5042 25.7831 -2.36 -14.5042
14727 1 -6.45766 -1.983 -14.5786 -6.45766 -1.983 -14.5786
15391 1 -5.0298 -1.7387 -14.8103 -5.0298 -1.7387 19.2034
1788 1 -5.44696 -2.68608 -15.2133 -5.44696 -36.6998 -15.2133
15523 1 -2.86895 -1.74023 -15.2013 -2.86895 -1.74023 18.8125
2003 1 -1.67538 -2.33455 -14.4968 -35.6891 -2.33455 -14.4968
9079 1 -15.6935 -0.691484 -14.6412 18.3202 -0.691484 -14.6412
12538 1 -13.5806 -0.686019 -14.6323 20.4331 -0.686019 -14.6323
2291 1 -12.6921 -0.564277 -15.3499 -12.6921 -0.564277 18.6638
14073 1 -11.6184 -1.36713 -14.574 -11.6184 -1.36713 -14.574
5678 1 -9.97644 -0.442804 -14.7863 -9.97644 -0.442804 -14.7863
5087 1 -8.73734 -0.449558 -15.1336 -8.73734 -0.449558 -15.1336
10506 1 -7.94344 -1.21253 -14.9242 26.0703 -1.21253 19.0895
8063 1 -6.64306 -0.458286 -14.6368 -6.64306 -0.458286 19.3769
8871 1 -6.86425 -1.24729 -15.37 27.1495 -1.24729 -15.37
13560 1 -2.9163 -0.239868 -15.1656 -2.9163 -0.239868 -15.1656
13096 1 -4.21744 -0.828411 -14.8851 -4.21744 -0.828411 -14.8851
12769 1 -1.81268 -1.07947 -14.7624 -1.81268 -1.07947 -14.7624
16152 1 -1.20954 -0.160053 -15.2296 -1.20954 -0.160053 18.7841
8192 1 -16.1633 -16.8321 -13.4655 -16.1633 17.1816 20.5482
1739 1 -15.5178 -15.5946 -13.6429 -15.5178 -15.5946 -13.6429
295 1 -14.9369 -16.7497 -12.9793 -14.9369 -16.7497 -12.9793
7182 1 -14.0563 -16.6658 -13.8984 -14.0563 17.3479 20.1153
11853 1 -13.7412 -15.9247 -13.1904 20.2725 -15.9247 20.8233
12377 1 -12.5209 -16.0661 -14.1434 21.4928 17.9476 -14.1434
7751 1 -11.5063 -15.6161 -13.5142 -11.5063 18.3976 20.4995
12332 1 -12.6711 -16.3211 -12.8107 21.3426 -16.3211 21.203
4729 1 -10.9126 -16.5369 -13.5896 -10.9126 17.4769 -13.5896
7688 1 -9.73675 -16.0674 -13.5111 -9.73675 -16.0674 20.5026
3221 1 -8.44796 -16.8453 -13.9291 -8.44796 -16.8453 -13.9291
273 1 -7.32766 -16.0627 -12.9762 -7.32766 -16.0627 -12.9762
1970 1 -5.92888 -15.8617 -13.5221 -5.92888 -15.8617 -13.5221
1935 1 -7.03754 -15.9604 -14.1355 -7.03754 -15.9604 -14.1355
8110 1 -4.10965 -16.1116 -13.0647 -4.10965 17.9022 20.949
1834 1 -3.41938 -16.9649 -13.8175 -3.41938 -16.9649 -13.8175
11512 1 -2.25791 -15.6915 -13.2471 -2.25791 -15.6915 20.7666
730 1 -16.4866 -15.2767 -13.0149 -16.4866 -15.2767 -13.0149
14619 1 -14.5873 -14.6663 -13.2211 19.4265 19.3474 -13.2211
11463 1 -12.6876 -14.5126 -13.4345 21.3261 -14.5126 20.5792
6711 1 -10.7568 -14.7421 -13.6668 -10.7568 19.2717 20.347
12340 1 -9.16018 -14.6631 -13.5139 -9.16018 -14.6631 20.4998
1997 1 -8.48967 -15.4556 -14.1138 -8.48967 -15.4556 -14.1138
2298 1 -7.71067 -14.5858 -13.3764 -7.71067 -14.5858 20.6373
4926 1 -5.28269 -15.0018 -14.0604 -5.28269 19.0119 -14.0604
856 1 -4.22436 -14.874 -13.5622 -38.2381 -14.874 -13.5622
8445 1 -1.3032 -14.8332 -13.1145 -1.3032 -14.8332 -13.1145
2910 1 -15.4863 -13.3635 -13.1488 -15.4863 -13.3635 20.8649
6189 1 -14.0517 -12.845 -13.1429 -14.0517 21.1687 -13.1429
8535 1 -11.6378 -13.8552 -14.0898 -11.6378 -13.8552 -14.0898
416 1 -12.6306 -13.4892 -13.0441 -12.6306 -13.4892 -13.0441
1663 1 -11.6332 -12.9193 -13.579 -11.6332 -12.9193 -13.579
12455 1 -10.8534 -13.1124 -12.8164 -10.8534 20.9013 -12.8164
352 1 -9.5363 -13.4854 -13.0058 -9.5363 -13.4854 -13.0058
4321 1 -8.44117 -13.5881 -13.9135 -8.44117 -13.5881 -13.9135
9102 1 -7.74722 -13.4928 -12.7952 -7.74722 -13.4928 -12.7952
1798 1 -6.51365 -13.5098 -13.963 -6.51365 -13.5098 -13.963
7289 1 -5.19382 -12.9064 -13.3943 -5.19382 21.1073 20.6195
5518 1 -5.16755 -14.0537 -13.4266 -5.16755 19.96 -13.4266
5291 1 -3.31363 -13.7491 -13.3377 -3.31363 20.2647 -13.3377
6016 1 -1.3999 -13.8906 -13.8759 -1.3999 -13.8906 -13.8759
5612 1 -0.632531 -13.5936 -13.0111 -0.632531 20.4201 -13.0111
10628 1 -0.339241 -13.224 -13.9721 -0.339241 -13.224 20.0416
3103 1 -15.7725 -12.052 -12.8773 -15.7725 -12.052 21.1364
15942 1 -14.8413 -12.2772 -13.5774 19.1724 21.7366 -13.5774
305 1 -14.1758 -11.512 -13.288 -14.1758 -11.512 -13.288
1924 1 -12.9743 -12.3094 -13.3429 -12.9743 -12.3094 -13.3429
1868 1 -11.7357 -11.8807 -13.881 -11.7357 -11.8807 -13.881
4413 1 -10.621 -12.1146 -13.4604 -10.621 21.8991 -13.4604
12676 1 -8.73915 -12.0447 -13.5548 25.2746 21.969 -13.5548
130 1 -9.69797 -11.5023 -13.1964 -9.69797 -11.5023 -13.1964
82 1 -6.46095 -11.3735 -13.4319 -6.46095 -11.3735 -13.4319
8959 1 -3.86892 -11.9095 -13.4177 -3.86892 -11.9095 -13.4177
2121 1 -1.65176 -11.3813 -13.8026 -1.65176 -11.3813 -13.8026
3882 1 -2.5091 -12.3462 -13.2123 -2.5091 -12.3462 -13.2123
12783 1 -1.29137 -12.3632 -13.1142 -1.29137 21.6505 -13.1142
5086 1 -15.7857 -10.8386 -12.9608 -15.7857 23.1752 21.0529
5067 1 -16.8893 -11.152 -14.0885 -16.8893 -11.152 -14.0885
4316 1 -14.3783 -10.2746 -13.5445 -14.3783 23.7391 -13.5445
5597 1 -12.8889 -11.2304 -13.8274 -12.8889 22.7833 -13.8274
3263 1 -10.4297 -10.3772 -13.6898 -10.4297 -10.3772 20.3239
9636 1 -7.70787 -11.1569 -13.4618 -7.70787 -11.1569 -13.4618
2060 1 -6.30118 -10.199 -13.633 -6.30118 -10.199 20.3807
11018 1 -4.43426 -10.4954 -13.8078 -4.43426 -10.4954 20.2059
8214 1 -4.73424 -10.7957 -12.8364 -4.73424 23.218 21.1773
6512 1 -3.01077 -11.0303 -13.2393 -3.01077 22.9834 20.7744
495 1 -1.78659 -10.3737 -14.009 -1.78659 -10.3737 -14.009
16370 1 -0.259353 -11.3078 -12.8364 -0.259353 22.706 21.1773
8938 1 -16.0224 -9.58539 -13.378 17.9913 -9.58539 -13.378
888 1 -14.5407 -8.82844 -12.9862 -14.5407 -8.82844 -12.9862
228 1 -13.5356 -9.39729 -12.8969 -13.5356 -9.39729 -12.8969
12058 1 -12.8718 -9.88368 -13.8858 21.1419 -9.88368 20.1279
2381 1 -12.038 -8.87434 -13.8592 -12.038 -8.87434 20.1545
791 1 -10.0571 -9.00414 -14.1067 -10.0571 -9.00414 -14.1067
7956 1 -9.42339 -9.71402 -12.7857 -9.42339 24.2997 -12.7857
1294 1 -8.22718 -9.67769 -13.5091 -8.22718 -9.67769 -13.5091
9906 1 -6.9594 -8.7524 -13.7918 -6.9594 -8.7524 -13.7918
1012 1 -6.85756 -8.7175 -12.7782 -6.85756 -8.7175 -12.7782
2022 1 -5.43411 -9.18533 -14.0408 -5.43411 -9.18533 -14.0408
15036 1 -3.29754 -9.70655 -13.1806 -3.29754 -9.70655 20.8332
10137 1 -2.9963 -9.33919 -14.1611 -2.9963 -9.33919 -14.1611
9352 1 -1.71702 -9.73323 -12.9676 -1.71702 -9.73323 -12.9676
4663 1 -0.933704 -8.9162 -13.5473 -0.933704 25.0975 -13.5473
1043 1 -15.9105 -7.70314 -13.8403 18.1032 -7.70314 -13.8403
11013 1 -15.2504 -8.50058 -13.9922 18.7633 -8.50058 20.0215
2368 1 -14.2273 -7.70891 -12.9781 -14.2273 -7.70891 21.0356
912 1 -12.9371 -8.34885 -13.205 -12.9371 -8.34885 -13.205
9831 1 -11.3606 -7.22074 -13.2411 22.6531 -7.22074 -13.2411
1201 1 -12.4006 -7.11929 -13.2338 -12.4006 -7.11929 -13.2338
3748 1 -10.9242 -8.29037 -13.624 -10.9242 -8.29037 20.3897
472 1 -9.39434 -7.53861 -13.5894 -9.39434 -7.53861 -13.5894
1676 1 -8.24081 -7.30418 -14.0686 -8.24081 -7.30418 -14.0686
11112 1 -5.70583 -7.89514 -13.3711 -5.70583 -7.89514 20.6426
8711 1 -6.76836 -7.61593 -14.0242 -6.76836 -7.61593 -14.0242
5756 1 -4.23808 -7.88948 -13.7735 -4.23808 26.1242 20.2402
8340 1 -2.96732 -8.43187 -13.4995 -2.96732 -8.43187 -13.4995
5446 1 -2.645 -7.35174 -13.817 -36.6587 -7.35174 -13.817
9579 1 -0.879022 -7.84366 -14.0351 -0.879022 -7.84366 -14.0351
2761 1 -15.597 -5.76951 -13.0155 -15.597 -5.76951 -13.0155
12505 1 -16.4696 -6.20515 -14.1561 17.5442 27.8086 -14.1561
15720 1 -14.6448 -6.53645 -13.7887 19.3689 -6.53645 20.225
11955 1 -11.3522 -5.93132 -13.2021 -11.3522 -5.93132 20.8116
12483 1 -10.1038 -6.14275 -13.2012 -10.1038 -6.14275 -13.2012
9089 1 -9.0388 -6.30903 -13.8743 -9.0388 -6.30903 -13.8743
12149 1 -8.11849 -6.57402 -12.8753 -8.11849 -6.57402 21.1384
12043 1 -7.52956 -6.21004 -13.8487 -7.52956 -6.21004 20.165
8390 1 -6.42897 -6.00599 -13.4453 -6.42897 -6.00599 -13.4453
14071 1 -5.11735 -6.27767 -13.8041 -5.11735 27.736 -13.8041
2075 1 -4.88019 -6.72886 -12.784 -4.88019 -6.72886 21.2297
10992 1 -3.65557 -6.79834 -13.0661 -3.65557 -6.79834 20.9477
7702 1 -2.68932 -5.92394 -13.5792 -2.68932 -5.92394 20.4345
4062 1 -0.520007 -5.77708 -14.013 -0.520007 -5.77708 -14.013
5143 1 -1.0508 -6.63354 -13.1971 -1.0508 -6.63354 -13.1971
9854 1 -16.2801 -4.39705 -13.8605 17.7336 -4.39705 -13.8605
2221 1 -16.8436 -5.4827 -13.3073 -16.8436 -5.4827 -13.3073
13312 1 -15.39 -4.54066 -13.0102 18.6237 -4.54066 -13.0102
12818 1 -13.8344 -5.42563 -13.6718 20.1793 -5.42563 -13.6718
8007 1 -12.9862 -4.37844 -12.892 -12.9862 -4.37844 21.1218
2478 1 -12.5668 -5.3787 -13.9994 -12.5668 -5.3787 20.0143
1 1 -11.7027 -4.66934 -14.0034 -11.7027 -4.66934 -14.0034
4753 1 -10.8893 -4.52662 -12.7585 -10.8893 -4.52662 -12.7585
9330 1 -9.20615 -5.06525 -13.8609 24.8076 -5.06525 -13.8609
8384 1 -8.08056 -5.12958 -13.709 -8.08056 -5.12958 -13.709
8984 1 -6.2749 -4.44327 -13.4668 -6.2749 -4.44327 -13.4668
1095 1 -6.89825 -5.15569 -12.8059 -6.89825 -5.15569 -12.8059
11915 1 -4.993 -4.38948 -13.4272 -4.993 -4.38948 20.5865
9034 1 -3.79956 -5.17142 -13.8245 -3.79956 -5.17142 -13.8245
3078 1 -2.12424 -4.39289 -13.7194 -2.12424 -4.39289 -13.7194
5230 1 -1.7394 -5.28442 -12.9749 -1.7394 -5.28442 -12.9749
2767 1 -0.789715 -4.6732 -13.1786 -0.789715 -4.6732 -13.1786
5315 1 -16.0267 -3.42288 -14.1269 -16.0267 -3.42288 -14.1269
11686 1 -14.5519 -2.91875 -12.8671 19.4618 -2.91875 21.1466
3649 1 -13.7561 -3.79079 -13.4581 -13.7561 -3.79079 -13.4581
1812 1 -10.812 -3.03834 -13.786 -10.812 -3.03834 -13.786
8459 1 -8.56508 -4.03904 -13.6826 -8.56508 -4.03904 -13.6826
13508 1 -9.66481 -3.68682 -13.3138 24.3489 -3.68682 -13.3138
1617 1 -6.26741 -2.8968 -13.0209 -6.26741 -2.8968 -13.0209
8515 1 -5.18498 -2.93509 -13.4288 28.8287 -2.93509 -13.4288
9145 1 -1.60996 -3.27349 -13.0782 -1.60996 -3.27349 -13.0782
8961 1 -2.53109 -3.66122 -12.8438 -2.53109 -3.66122 -12.8438
3970 1 -0.608619 -3.25221 -13.5326 -0.608619 -3.25221 20.4811
4403 1 -15.3899 -2.50778 -13.6314 -15.3899 -2.50778 -13.6314
11087 1 -13.4648 -2.60193 -13.6456 -13.4648 -2.60193 20.3681
2727 1 -11.7577 -2.15874 -13.5203 -11.7577 -2.15874 -13.5203
6177 1 -9.60412 -2.67312 -13.7576 -9.60412 -2.67312 20.2561
5220 1 -7.18416 -2.08584 -13.4771 -7.18416 -2.08584 -13.4771
3883 1 -8.3753 -2.72065 -12.8155 -8.3753 -2.72065 21.1982
12024 1 -3.48524 -2.66805 -13.7337 -3.48524 -2.66805 20.28
7102 1 -3.77348 -1.59335 -14.0311 -3.77348 32.4204 19.9826
6860 1 -2.28407 -1.52045 -13.7925 -2.28407 -1.52045 20.2212
1679 1 -0.174508 -2.19605 -14.1596 -0.174508 -2.19605 -14.1596
9036 1 -16.966 -0.332399 -13.7939 17.0478 -0.332399 -13.7939
2585 1 -16.0846 -1.18917 -13.3979 -16.0846 -1.18917 20.6158
13098 1 -14.9866 -0.0749348 -13.1711 19.0271 -0.0749348 -13.1711
2019 1 -14.5228 -1.38395 -13.7118 -14.5228 -1.38395 -13.7118
13947 1 -13.1396 -0.654542 -13.5879 20.8741 -0.654542 -13.5879
9657 1 -12.0559 -0.484519 -13.9909 21.9578 -0.484519 -13.9909
14911 1 -12.133 -0.799201 -12.868 21.8807 -0.799201 21.1457
1336 1 -10.3071 -1.31633 -13.9814 -10.3071 -1.31633 -13.9814
11459 1 -10.2031 -0.731878 -12.7769 23.8106 -0.731878 21.2368
676 1 -8.72129 -1.06544 -13.5154 -8.72129 -1.06544 -13.5154
16290 1 -7.85669 -0.532816 -13.8886 26.157 -0.532816 -13.8886
2841 1 -6.01652 -0.381493 -13.5515 -6.01652 -0.381493 20.4622
15488 1 -4.92012 -1.40811 -13.4334 29.0936 -1.40811 20.5803
2980 1 -1.73981 -1.15349 -12.8813 -1.73981 -1.15349 -12.8813
1081 1 -2.69586 -0.0653347 -13.5564 -2.69586 -0.0653347 -13.5564
14054 1 -0.813174 -0.785994 -13.765 -0.813174 33.2277 -13.765