ITEM: TIMESTEP
9000
ITEM: NUMBER OF ATOMS
16384
ITEM: BOX BOUNDS pp pp pp
-1.7006855707231768e+01 1.7006855707231768e+01
-1.7006855707231768e+01 1.7006855707231768e+01
-1.7006855707231768e+01 1.7006855707231768e+01
ITEM: ATOMS id type x y z xu yu zu
15495 1 -16.9006 -16.4641 -15.196 17.1131 17.5496 18.8177
1276 1 -5.49341 -17.0054 -3.17553 -5.49341 -17.0054 -3.17553
10387 1 -12.8195 -16.6825 -15.3859 21.1942 -16.6825 18.6278
12676 1 -11.7998 -15.4851 -15.5688 22.2139 18.5286 -15.5688
15997 1 -9.69119 -16.5484 -16.6205 -9.69119 17.4653 17.3933
13949 1 -0.552531 -14.5752 -1.73437 -0.552531 19.4385 -1.73437
1461 1 -8.14542 -16.5634 -16.5234 -8.14542 -16.5634 -16.5234
15205 1 -5.86313 -15.5451 -16.2802 28.1506 18.4686 17.7336
1970 1 -6.94811 -13.854 -16.8038 -6.94811 -13.854 -16.8038
15536 1 -3.50595 -15.6977 -16.0263 -3.50595 18.316 -16.0263
139 1 -0.2393 -10.4541 -2.48285 -0.2393 -10.4541 -2.48285
5809 1 -0.679896 -16.6097 -16.4704 -0.679896 17.404 -16.4704
5037 1 -15.565 -15.4025 -16.5943 -15.565 18.6112 17.4194
14222 1 -11.7138 -0.203325 -1.40308 22.2999 -0.203325 -1.40308
13193 1 -13.2201 -15.1201 -15.6071 20.7936 18.8937 -15.6071
2114 1 -15.1597 -14.5299 -15.3175 -15.1597 -14.5299 18.6962
5410 1 -5.00453 -0.131643 -3.78582 -5.00453 -0.131643 -3.78582
1327 1 -12.5714 -15.9872 -16.5764 -12.5714 -15.9872 -16.5764
7734 1 -10.6255 -14.8859 -16.0989 -10.6255 19.1278 17.9148
6420 1 -7.38004 -14.8324 -16.3982 -7.38004 19.1813 17.6155
12399 1 -0.315715 -15.5434 -6.07411 -0.315715 18.4704 -6.07411
128 1 -2.11327 -0.0518639 -8.33524 -2.11327 -34.0656 -8.33524
12056 1 -5.70352 -14.6827 -15.7533 -5.70352 19.331 18.2604
4800 1 -16.852 -6.71858 -4.58449 -16.852 -6.71858 -4.58449
15480 1 -1.43349 -14.2495 -15.4321 -1.43349 19.7642 18.5816
4910 1 -15.2032 -13.4195 -15.7503 -15.2032 -13.4195 -15.7503
13560 1 -4.05247 -0.492665 -15.7976 -4.05247 -0.492665 -15.7976
14247 1 -13.6007 -13.6617 -16.1566 -13.6007 20.352 -16.1566
4013 1 -11.6182 -16.8176 -9.92611 -11.6182 -16.8176 -9.92611
9102 1 -8.25127 -14.1248 -15.3314 -8.25127 -14.1248 -15.3314
1048 1 -6.14961 -13.62 -15.388 -6.14961 -13.62 -15.388
11401 1 -5.90569 -11.4903 -16.2049 -5.90569 -11.4903 17.8088
10478 1 -3.26563 -14.6116 -15.4558 -3.26563 -14.6116 18.5579
7864 1 -4.94349 -13.4064 -15.243 -4.94349 20.6073 18.7707
4627 1 -9.98507 -16.7522 -10.9457 -9.98507 17.2615 -10.9457
2414 1 -2.66058 -0.00866889 -13.0066 -2.66058 -0.00866889 21.0071
1363 1 -15.6335 -11.6579 -16.4148 -15.6335 -11.6579 -16.4148
15178 1 -14.4782 -12.6928 -16.1137 19.5355 21.3209 17.9
9359 1 -12.217 -11.8226 -16.4078 21.7967 -11.8226 -16.4078
3531 1 -11.0099 -11.944 -16.8436 -11.0099 -11.944 17.1701
8774 1 -11.9891 -13.4842 -15.677 -11.9891 -13.4842 -15.677
5482 1 -10.1867 -12.7136 -15.7481 -10.1867 21.3001 -15.7481
4144 1 -2.79936 -0.507742 -9.53733 -2.79936 -0.507742 -9.53733
3906 1 -8.76572 -12.7557 -15.959 -8.76572 -12.7557 18.0547
12680 1 -7.15697 -11.7591 -15.9041 -7.15697 22.2547 -15.9041
3934 1 -4.81604 -12.192 -16.0786 -4.81604 -12.192 17.9351
618 1 -3.10863 -11.5327 -16.3627 -3.10863 -11.5327 -16.3627
5707 1 -3.38907 -12.5289 -16.3501 -3.38907 21.4848 -16.3501
4175 1 -2.93047 -16.9965 -5.22824 -2.93047 17.0172 -5.22824
6397 1 -2.62831 -13.5889 -15.4453 -2.62831 20.4248 18.5684
610 1 -8.55853 -16.0442 -4.9048 -8.55853 -16.0442 -4.9048
2191 1 -9.9673 -0.402878 -14.3036 -9.9673 -0.402878 19.7102
11319 1 -12.3585 -10.75 -16.4899 21.6552 -10.75 17.5238
14050 1 -12.2419 -12.1114 -15.2363 21.7718 21.9023 18.7774
4814 1 -10.6825 -10.9855 -16.5275 -10.6825 23.0282 -16.5275
1281 1 -10.4035 -9.92215 -16.3754 -10.4035 -9.92215 -16.3754
2449 1 -9.177 -11.0061 -16.5217 -9.177 -11.0061 17.492
7432 1 -9.16251 -9.69244 -16.5107 -9.16251 24.3213 17.503
13612 1 -7.3724 -10.3659 -16.885 26.6413 -10.3659 -16.885
12802 1 -16.5223 -5.85886 -6.37115 17.4914 -5.85886 -6.37115
15000 1 -16.8402 -5.93533 -0.564884 -16.8402 28.0784 -0.564884
4663 1 -0.180782 -8.96344 -10.4533 -0.180782 25.0503 -10.4533
130 1 -4.84067 -10.2469 -16.7627 -4.84067 -10.2469 -16.7627
11063 1 -2.8029 -10.2641 -15.4972 -2.8029 -10.2641 18.5165
10952 1 -0.110972 -11.024 -15.9827 -0.110972 -11.024 18.031
7396 1 -0.960185 -0.946395 -9.31049 -0.960185 -0.946395 24.7032
4276 1 -16.3996 -9.77509 -15.1702 -16.3996 24.2386 -15.1702
12058 1 -12.9547 -9.60665 -16.4218 21.059 -9.60665 17.5919
8938 1 -14.597 -8.76716 -16.6733 19.4167 -8.76716 -16.6733
2298 1 -8.02393 -16.9479 -14.2228 -8.02393 -16.9479 19.7909
1145 1 -11.8313 -10.4094 -15.4475 -11.8313 -10.4094 -15.4475
3705 1 -0.70512 -12.5492 -7.87587 -0.70512 -12.5492 -7.87587
12726 1 -11.8811 -9.66129 -16.3455 22.1326 24.3524 -16.3455
8965 1 -9.43451 -8.10129 -15.2254 24.5792 -8.10129 -15.2254
948 1 -6.83379 -8.72184 -16.1639 -6.83379 -8.72184 -16.1639
6129 1 -6.29376 -9.46246 -15.4251 -6.29376 -9.46246 18.5886
13965 1 -16.4611 -11.447 -3.495 17.5527 22.5667 -3.495
1464 1 -3.13813 -10.41 -16.7678 -3.13813 -10.41 -16.7678
8548 1 -1.69693 -9.94998 -16.2998 -1.69693 -9.94998 -16.2998
5083 1 -14.1212 -16.4136 -4.74117 -14.1212 17.6001 -4.74117
11923 1 -0.594167 -9.44116 -15.7241 -0.594167 -9.44116 -15.7241
10988 1 -12.4995 -16.9375 -3.42017 21.5143 -16.9375 30.5935
2256 1 -16.609 -7.38633 -15.744 -16.609 -7.38633 18.2697
4794 1 -16.1364 -16.4136 -13.945 -16.1364 17.6001 -13.945
9400 1 -15.05 -7.67009 -16.6075 18.9637 -7.67009 17.4062
11013 1 -14.4701 -6.88787 -15.6603 19.5436 -6.88787 18.3534
11614 1 -12.7617 -6.42123 -15.4001 21.252 -6.42123 18.6136
704 1 -12.1366 -8.92209 -15.0894 -12.1366 -8.92209 -15.0894
702 1 -10.9123 -8.27598 -15.3289 -10.9123 -8.27598 -15.3289
324 1 -9.66856 -7.30483 -16.7763 -9.66856 -7.30483 -16.7763
7263 1 -8.44351 -7.18089 -16.6165 -8.44351 26.8328 17.3972
7029 1 -6.07221 -7.96844 -16.7018 -6.07221 26.0453 17.3119
10134 1 -6.07342 -8.10356 -15.2637 -6.07342 -8.10356 -15.2637
5446 1 -5.38827 -7.43251 -16.1335 -39.402 -7.43251 -16.1335
13964 1 -13.6224 -5.50376 -16.6933 -13.6224 -5.50376 -16.6933
1666 1 -3.82691 -9.24806 -16.4782 -3.82691 -9.24806 -16.4782
15213 1 -3.29065 -8.2195 -16.8215 -3.29065 25.7942 17.1922
15421 1 -1.26266 -8.32808 -16.7301 -1.26266 25.6856 -16.7301
560 1 -1.07903 -13.8858 -8.10694 -1.07903 -13.8858 -8.10694
528 1 -15.9443 -6.56139 -16.5342 -15.9443 -6.56139 -16.5342
4087 1 -16.434 -15.678 -12.8887 -16.434 18.3358 -12.8887
865 1 -12.3482 -5.1672 -15.2087 -12.3482 -5.1672 -15.2087
6369 1 -10.6504 -16.8841 -13.2483 -10.6504 17.1296 20.7654
14187 1 -9.63472 -5.64925 -15.677 24.379 -5.64925 -15.677
14469 1 -7.62293 -7.01684 -15.429 26.3908 26.9969 -15.429
3621 1 -6.54003 -16.9062 -7.07149 -6.54003 -16.9062 26.9422
461 1 -4.14278 -6.29612 -16.3525 -4.14278 -6.29612 -16.3525
5143 1 -2.47048 -5.43811 -16.723 -2.47048 -5.43811 -16.723
12429 1 -2.18742 -7.01454 -16.8852 -2.18742 26.9992 -16.8852
5727 1 -12.5627 -6.89889 -16.5312 -12.5627 -6.89889 -16.5312
13312 1 -16.2166 -5.26787 -16.8778 17.7971 -5.26787 -16.8778
9120 1 -0.278442 -5.49292 -5.03424 -0.278442 -5.49292 -5.03424
2288 1 -14.3876 -4.31026 -15.6437 -14.3876 -4.31026 18.37
10912 1 -12.5607 -4.40023 -16.2441 21.453 -4.40023 17.7696
1867 1 -10.7801 -4.9161 -16.6398 -10.7801 -4.9161 -16.6398
3527 1 -15.7731 -0.221684 -3.63572 -15.7731 -0.221684 30.378
12459 1 -7.74795 -4.47615 -16.4763 -7.74795 29.5376 -16.4763
11415 1 -6.02574 -6.72468 -15.2884 27.988 -6.72468 18.7253
762 1 -5.96002 -5.54349 -16.5438 -5.96002 -5.54349 -16.5438
10484 1 -7.4982 -16.2746 -8.15128 26.5155 -16.2746 25.8624
9145 1 -3.2345 -4.3084 -16.2442 -3.2345 -4.3084 -16.2442
9314 1 -1.51276 -3.92268 -15.6306 -1.51276 -3.92268 -15.6306
1606 1 -1.07964 -2.88259 -15.7019 -1.07964 -2.88259 -15.7019
4043 1 -13.6992 -16.8348 -0.62128 -13.6992 -16.8348 -0.62128
9410 1 -16.3448 -3.68981 -16.8609 17.6689 -3.68981 -16.8609
16163 1 -14.758 -4.62754 -16.8315 19.2557 -4.62754 17.1822
1383 1 -15.3324 -3.57825 -16.648 -15.3324 -3.57825 -16.648
10814 1 -13.4138 -2.62659 -16.4036 20.5999 -2.62659 -16.4036
7698 1 -11.8789 -3.22896 -16.0698 -11.8789 -3.22896 17.944
84 1 -10.892 -3.8608 -15.0191 -10.892 -3.8608 -15.0191
1279 1 -9.02181 -4.15661 -16.6047 -9.02181 -4.15661 -16.6047
5081 1 -6.79725 -3.42776 -15.619 -6.79725 -3.42776 -15.619
15400 1 -16.3693 -0.140969 -12.7813 17.6444 -0.140969 21.2324
2560 1 -3.64907 -2.79571 -16.6948 -3.64907 -2.79571 17.3189
3970 1 -2.35383 -4.10072 -16.8392 -2.35383 -4.10072 17.1745
2980 1 -1.37928 -1.91248 -15.8082 -1.37928 -1.91248 -15.8082
15607 1 -14.984 -0.996616 -15.7687 19.0297 -0.996616 18.245
2701 1 -14.7529 -1.31378 -16.7063 -14.7529 -1.31378 17.3074
5524 1 -12.1152 -1.64921 -15.7028 -12.1152 -1.64921 -15.7028
2906 1 -10.8369 -2.36396 -16.7492 -10.8369 -2.36396 17.2645
2181 1 -16.8926 -16.7288 -1.49391 -16.8926 -16.7288 -1.49391
14550 1 -8.44068 -2.68309 -16.8844 -8.44068 -2.68309 17.1294
16358 1 -8.0019 -2.66643 -14.9607 26.0118 -2.66643 19.053
12222 1 -6.90857 -2.61308 -16.9111 -6.90857 -2.61308 17.1026
5192 1 -2.2722 -16.9429 -3.94087 -2.2722 17.0708 -3.94087
2026 1 -3.42647 -3.1408 -14.8852 -3.42647 -37.1545 -14.8852
3835 1 -3.67893 -1.46178 -15.202 -3.67893 -1.46178 18.8117
15308 1 -16.5299 -9.9514 -3.81254 17.4838 24.0623 -3.81254
1519 1 -3.23407 -14.7811 -16.9678 -3.23407 -14.7811 -16.9678
11718 1 -16.6132 -3.3486 -8.08751 17.4005 -3.3486 25.9262
13352 1 -16.4811 -12.5296 -4.60241 17.5326 21.4841 -4.60241
4762 1 -12.6504 -0.343947 -16.5327 -12.6504 -0.343947 -16.5327
892 1 -10.7151 -1.32775 -16.2548 -10.7151 -1.32775 -16.2548
4609 1 -7.82865 -0.821529 -1.77554 -7.82865 -0.821529 -1.77554
64 1 -8.65194 -1.48916 -15.8721 -8.65194 -1.48916 -15.8721
3495 1 -9.71789 -0.503942 -15.8164 -9.71789 -0.503942 18.1973
684 1 -6.97726 -0.852759 -15.7874 -6.97726 -0.852759 -15.7874
10086 1 -6.11427 -0.38496 -16.6426 -6.11427 -0.38496 -16.6426
6735 1 -0.0431831 -7.02515 -5.08331 -0.0431831 26.9886 -5.08331
3510 1 -16.8174 -0.320524 -0.783983 -16.8174 -0.320524 -0.783983
953 1 -0.739423 -0.600248 -16.3783 -0.739423 -0.600248 -16.3783
12326 1 -15.713 -15.3957 -15.3974 18.3007 -15.3957 18.6163
8336 1 -0.952771 -2.2646 -1.57908 -0.952771 -2.2646 -1.57908
2101 1 -14.373 -15.5528 -15.9059 -14.373 -15.5528 18.1078
661 1 -13.9308 -16.3 -14.6801 -13.9308 -16.3 -14.6801
6576 1 -0.228377 -7.30464 -0.859366 -0.228377 -7.30464 -0.859366
3418 1 -11.0289 -15.5781 -14.4249 -11.0289 -15.5781 19.5888
4829 1 -10.2357 -15.7365 -15.4746 -10.2357 18.2772 -15.4746
854 1 -16.3448 -8.50041 -1.62107 -16.3448 -8.50041 -1.62107
7751 1 -8.84101 -16.3721 -15.2453 -8.84101 17.6416 18.7684
11476 1 -5.51772 -2.24608 -0.0980227 28.496 -2.24608 -0.0980227
1690 1 -7.35839 -15.9904 -15.9117 -7.35839 18.0233 -15.9117
9278 1 -6.27311 -16.3775 -14.8625 -6.27311 -16.3775 -14.8625
8309 1 -15.782 -6.84843 -0.42471 18.2317 -6.84843 -0.42471
4519 1 -5.04279 -16.1038 -15.1195 -5.04279 17.9099 -15.1195
16084 1 -3.78379 -16.7526 -13.6158 -3.78379 17.2611 20.3979
11914 1 -4.4142 -14.6978 -13.6173 -4.4142 -14.6978 20.3964
4616 1 -1.0813 -15.9303 -14.9989 -1.0813 18.0834 -14.9989
16350 1 -16.4728 -2.13288 -16.6672 17.5409 -2.13288 17.3465
12844 1 -15.7193 -14.8603 -14.2835 18.2944 19.1534 -14.2835
7981 1 -16.2553 -14.227 -15.5506 -16.2553 19.7867 18.4631
8535 1 -14.4367 -15.0576 -13.6319 -14.4367 -15.0576 -13.6319
8786 1 -14.0076 -14.3395 -14.7236 20.0061 -14.3395 -14.7236
921 1 -12.7619 -15.2392 -14.5247 -12.7619 -15.2392 -14.5247
14619 1 -11.586 -14.6785 -14.7574 22.4278 19.3352 -14.7574
7688 1 -8.38862 -15.4745 -13.736 -8.38862 -15.4745 20.2777
5235 1 -7.89021 -15.865 -14.81 -7.89021 -15.865 -14.81
3745 1 -7.5428 -13.6545 -14.374 -7.5428 -13.6545 19.6397
15814 1 -6.92073 -14.6404 -14.9454 -6.92073 19.3733 19.0683
1661 1 -4.83083 -14.8277 -14.9725 -4.83083 -14.8277 -14.9725
10628 1 -2.15097 -15.7366 -15.6359 -2.15097 -15.7366 18.3779
10502 1 -0.37765 -14.8634 -14.5384 33.6361 -14.8634 19.4753
16291 1 -8.59193 -16.7088 -1.53572 -8.59193 17.3049 -1.53572
7800 1 -15.9195 -12.3434 -15.5596 -15.9195 21.6703 18.4541
8453 1 -14.9252 -13.1393 -14.0391 19.0885 -13.1393 -14.0391
6463 1 -12.6674 -13.8499 -14.6686 -12.6674 20.1638 19.3451
10862 1 -10.7578 -14.5119 -12.9356 23.256 -14.5119 21.0781
13995 1 -10.2572 -13.8652 -15.9879 -10.2572 20.1485 -15.9879
4246 1 -9.01526 -14.9503 -15.7452 -9.01526 19.0634 -15.7452
10048 1 -7.31211 -12.6888 -15.0342 -7.31211 -12.6888 -15.0342
910 1 -4.30489 -13.7071 -14.4429 -4.30489 -13.7071 -14.4429
12295 1 -6.14362 -12.6935 -14.7369 -6.14362 -12.6935 19.2768
5291 1 -3.30567 -13.6236 -13.4523 -3.30567 20.3902 -13.4523
11359 1 -1.89621 -13.401 -14.3684 -1.89621 -13.401 19.6453
10788 1 -2.71692 -12.5986 -14.7999 31.2968 -12.5986 19.2138
1065 1 -2.2869 -14.3041 -16.4785 -2.2869 -14.3041 -16.4785
1792 1 -0.0192921 -13.0193 -14.1415 -0.0192921 -13.0193 -14.1415
7695 1 -15.7049 -12.3049 -13.9615 -15.7049 21.7088 20.0522
1603 1 -14.6938 -12.4014 -15.0411 -14.6938 -12.4014 -15.0411
305 1 -14.4136 -10.9796 -15.3084 -14.4136 -10.9796 -15.3084
16266 1 -13.6001 -13.4528 -14.0059 20.4136 20.5609 -14.0059
13137 1 -13.3668 -12.3567 -15.4932 20.6469 -12.3567 -15.4932
2868 1 -11.8024 -12.9713 -14.0492 -11.8024 -12.9713 19.9645
8937 1 -10.9494 -12.2105 -14.888 23.0643 -12.2105 -14.888
312 1 -10.7606 -13.8258 -14.7907 -10.7606 -13.8258 19.223
4413 1 -10.2316 -11.0266 -14.9491 -10.2316 22.9871 -14.9491
15352 1 -9.75965 -11.6388 -15.7586 24.2541 -11.6388 18.2551
10853 1 -8.93942 -12.5938 -14.4671 -8.93942 -12.5938 -14.4671
10664 1 -6.56528 -11.2899 -14.866 27.4484 -11.2899 19.1478
4665 1 -3.30832 -11.5731 -14.995 -3.30832 22.4406 -14.995
9355 1 -1.68782 -10.9993 -16.0109 -1.68782 -10.9993 18.0028
254 1 -0.91295 -12.3239 -16.1236 -0.91295 -12.3239 -16.1236
639 1 -16.2673 -11.0932 -15.3294 -16.2673 -11.0932 -15.3294
1883 1 -14.8154 -9.98905 -16.1439 -14.8154 -9.98905 -16.1439
4316 1 -13.6585 -9.86478 -15.3181 -13.6585 24.1489 -15.3181
13987 1 -13.045 -9.73927 -14.5395 20.9688 -9.73927 -14.5395
5597 1 -13.1549 -12.4039 -14.2517 -13.1549 21.6098 -14.2517
8583 1 -11.7185 -10.5982 -13.9975 -11.7185 -10.5982 -13.9975
4980 1 -7.68487 -10.3948 -15.5723 -7.68487 -10.3948 -15.5723
12208 1 -8.48079 -11.6251 -14.93 25.5329 -11.6251 19.0837
9246 1 -5.31217 -10.6252 -15.8119 28.7015 -10.6252 -15.8119
5116 1 -5.33275 -9.48396 -13.5072 -5.33275 -9.48396 -13.5072
10137 1 -4.6378 -12.0604 -14.6826 -4.6378 -12.0604 -14.6826
2128 1 -4.29009 -11.1392 -15.4164 -4.29009 -11.1392 18.5973
3125 1 -3.77485 -9.79162 -15.1121 -3.77485 -9.79162 18.9017
3816 1 -1.98543 -10.5618 -14.5518 -1.98543 -10.5618 19.4619
516 1 -4.2675 -10.7317 -13.834 -4.2675 -10.7317 -13.834
15414 1 -7.45897 -5.68754 -16.278 26.5547 -5.68754 17.7357
4692 1 -16.5909 -9.62656 -14.0012 -16.5909 -9.62656 -14.0012
10243 1 -14.0435 -8.43569 -15.6901 -14.0435 -8.43569 -15.6901
15695 1 -14.8445 -9.80504 -14.6549 19.1692 24.2087 19.3588
13199 1 -14.5309 -8.24476 -14.1971 -14.5309 25.769 -14.1971
4269 1 -11.4366 -9.25921 -14.1505 -11.4366 -9.25921 -14.1505
376 1 -10.2669 -9.7232 -15.0292 -10.2669 -9.7232 -15.0292
8072 1 -9.20976 -10.4007 -15.463 -9.20976 23.613 18.5508
9906 1 -9.61822 -9.21882 -13.582 -9.61822 -9.21882 -13.582
3547 1 -6.3789 -10.2509 -14.187 -6.3789 -10.2509 19.8267
8711 1 -8.41533 -9.15944 -15.6977 -8.41533 -9.15944 -15.6977
11112 1 -5.19022 -8.46901 -14.5676 -5.19022 -8.46901 19.4461
10790 1 -2.22048 -8.84124 -16.2921 -2.22048 -8.84124 17.7217
11018 1 -4.94528 -9.23385 -16.0373 -4.94528 -9.23385 17.9764
1248 1 -2.77 -9.52175 -14.3098 -2.77 -9.52175 -14.3098
10615 1 -1.24108 -9.06812 -14.6714 -1.24108 -9.06812 19.3423
7783 1 -15.6371 -8.48297 -15.4837 -15.6371 25.5307 -15.4837
7447 1 -12.75 -8.09396 -13.3937 -12.75 -8.09396 20.62
2832 1 -13.5515 -8.67656 -14.6951 -13.5515 -8.67656 19.3186
12672 1 -10.0278 -6.67565 -15.6289 23.9859 -6.67565 -15.6289
2163 1 -9.4378 -7.89385 -13.6766 -9.4378 -7.89385 20.3371
320 1 -6.76708 -9.32849 -14.442 -6.76708 -9.32849 -14.442
9939 1 -4.61572 -7.53983 -13.26 -4.61572 -7.53983 -13.26
8421 1 -3.51199 -6.91277 -15.5904 -3.51199 -6.91277 -15.5904
2121 1 -4.26289 -8.21632 -14.9047 -4.26289 -8.21632 -14.9047
11526 1 -2.89445 -8.09492 -14.4789 -2.89445 -8.09492 19.5348
9990 1 -1.08389 -7.31159 -15.7151 -1.08389 -7.31159 -15.7151
468 1 -16.3541 -6.28446 -15.2288 -16.3541 -6.28446 -15.2288
1043 1 -15.6013 -7.14114 -14.7855 18.4124 -7.14114 -14.7855
9267 1 -15.3765 -6.0161 -15.1614 18.6372 -6.0161 -15.1614
6725 1 -13.0331 -6.99568 -14.0611 -13.0331 -6.99568 19.9526
224 1 -13.7316 -7.61549 -14.8728 -13.7316 -7.61549 -14.8728
8388 1 -12.3786 -8.00698 -14.4855 -12.3786 -8.00698 -14.4855
2478 1 -11.5896 -6.12164 -15.3955 -11.5896 -6.12164 18.6182
15042 1 -10.3589 -5.04413 -15.1818 23.6548 -5.04413 18.8319
5221 1 -8.54607 -6.53194 -15.5615 -8.54607 27.4818 18.4522
8721 1 -8.17705 -8.16191 -15.0318 -8.17705 -8.16191 -15.0318
12043 1 -7.58988 -6.75607 -14.1575 -7.58988 -6.75607 19.8562
8384 1 -6.90436 -8.11747 -14.0556 -6.90436 -8.11747 -14.0556
1020 1 -6.42568 -7.16913 -14.4834 -6.42568 -7.16913 -14.4834
452 1 -4.91614 -6.63383 -14.711 -4.91614 -6.63383 -14.711
9034 1 -2.82134 -6.17412 -15.0835 -2.82134 -6.17412 -15.0835
1677 1 -2.77014 -6.17357 -13.4224 -2.77014 -6.17357 -13.4224
4062 1 -2.37302 -7.56606 -15.2517 -2.37302 -7.56606 -15.2517
2352 1 -0.93087 -6.20227 -15.6359 -0.93087 -6.20227 -15.6359
9080 1 -13.5153 -12.6806 -0.665213 20.4984 -12.6806 -0.665213
5891 1 -15.9916 -4.70541 -15.8814 -15.9916 -4.70541 -15.8814
3124 1 -13.5638 -4.38582 -14.8428 -13.5638 -4.38582 -14.8428
8777 1 -11.0503 -6.50494 -16.6417 -11.0503 -6.50494 17.372
11087 1 -11.469 -4.69306 -15.8315 -11.469 -4.69306 18.1822
10268 1 -11.3535 -5.16214 -14.6942 22.6602 -5.16214 -14.6942
3885 1 -8.62182 -4.73005 -15.415 -8.62182 -4.73005 18.5987
11190 1 -9.99916 -5.27252 -13.9481 -9.99916 -5.27252 20.0656
9539 1 -7.52923 -5.09823 -13.6641 -7.52923 -5.09823 -13.6641
14071 1 -6.46287 -4.32788 -14.4522 -6.46287 29.6858 -14.4522
12771 1 -7.32163 -5.5462 -14.8747 -7.32163 28.4675 -14.8747
5203 1 -3.42935 -5.48561 -15.9609 -37.4431 -5.48561 -15.9609
5089 1 -4.98633 -6.00552 -15.9101 -4.98633 -6.00552 -15.9101
11257 1 -3.56435 -4.83382 -14.56 -3.56435 -4.83382 19.4537
8984 1 -1.68491 -5.18017 -15.5872 -1.68491 -5.18017 -15.5872
11231 1 -1.43655 -4.48834 -14.188 -1.43655 -4.48834 19.8257
15544 1 -0.0690057 -5.31043 -15.0906 -0.0690057 -5.31043 18.9231
15775 1 -16.0363 -4.83165 -13.6251 17.9774 -4.83165 20.3886
9620 1 -15.4192 -2.1204 -15.7392 18.5945 -2.1204 -15.7392
10583 1 -14.6687 -3.03057 -15.252 19.345 -3.03057 -15.252
1336 1 -10.8169 -4.38425 -13.9726 -10.8169 -4.38425 -13.9726
6578 1 -9.81704 -2.72436 -15.5932 -9.81704 -2.72436 18.4205
4849 1 -9.23555 -2.77743 -14.6582 -9.23555 31.2363 19.3555
9624 1 -9.72652 -4.04965 -15.2428 24.2872 -4.04965 -15.2428
10506 1 -8.95898 -3.76388 -13.9679 25.0547 -3.76388 20.0458
5352 1 -6.36025 -1.98729 -15.324 -6.36025 -1.98729 -15.324
8515 1 -7.81312 -4.2835 -14.7359 26.2006 -4.2835 -14.7359
122 1 -5.42405 -1.69192 -14.7481 -5.42405 -1.69192 -14.7481
7782 1 -5.92186 -4.11817 -15.6021 -5.92186 -4.11817 18.4116
838 1 -6.43291 -2.99311 -14.585 -6.43291 -2.99311 -14.585
12090 1 -4.64502 -4.34542 -15.8251 29.3687 -4.34542 18.1886
12024 1 -2.47803 -4.323 -15.1257 -2.47803 -4.323 18.888
5596 1 -1.74895 -3.53212 -14.6605 -1.74895 30.4816 -14.6605
2155 1 -10.852 -0.225372 -12.8326 -10.852 -0.225372 21.1811
11169 1 -15.7163 -1.54438 -14.3799 18.2974 -1.54438 19.6338
9079 1 -15.8965 -2.68571 -14.6454 18.1172 -2.68571 -14.6454
3051 1 -13.1491 -2.62788 -14.6483 -13.1491 -2.62788 19.3654
15100 1 -14.4196 -1.95957 -14.8226 19.5941 -1.95957 19.1911
13268 1 -12.0762 -2.99992 -15.0344 -12.0762 -2.99992 -15.0344
2291 1 -10.8628 -2.48318 -14.9364 -10.8628 -2.48318 19.0773
7006 1 -9.46823 -1.45967 -14.7187 -9.46823 -1.45967 19.295
5974 1 -5.58631 -1.67538 -16.0767 -5.58631 -1.67538 -16.0767
3078 1 -4.77227 -2.90506 -15.4913 -4.77227 -2.90506 -15.4913
8063 1 -2.30973 -2.10774 -15.1605 -2.30973 -2.10774 18.8532
9082 1 -1.2127 -1.94111 -13.922 -1.2127 -1.94111 -13.922
12753 1 -13.7993 -0.270042 -15.7187 20.2144 -0.270042 -15.7187
10770 1 -15.1838 -0.266641 -15.067 18.8299 -0.266641 18.9467
1072 1 -13.1933 -1.64517 -15.5688 -13.1933 -1.64517 -15.5688
12660 1 -14.7622 -1.17628 -13.4637 19.2515 -1.17628 -13.4637
14786 1 -12.5527 -1.18052 -14.6993 21.461 -1.18052 19.3144
15471 1 -11.0827 -1.10294 -14.4024 22.931 -1.10294 19.6113
14411 1 -7.65093 -0.375728 -14.635 -7.65093 -0.375728 19.3787
7510 1 -6.43098 -0.513067 -14.5758 -6.43098 -0.513067 19.4379
13096 1 -4.73822 -2.44683 -16.7047 -4.73822 -2.44683 -16.7047
7792 1 -0.631462 -8.57518 -2.55647 -0.631462 25.4385 31.4572
7102 1 -4.50304 -1.45409 -14.4462 -4.50304 32.5596 19.5675
13563 1 -3.19106 -0.336154 -16.8916 -3.19106 -0.336154 -16.8916
12294 1 -2.22219 -1.10661 -16.1256 -2.22219 -1.10661 17.8881
7908 1 -1.94714 -0.860098 -14.3403 -1.94714 -0.860098 19.6734
11585 1 -16.9405 -5.06518 -1.72412 17.0732 -5.06518 -1.72412
11409 1 -0.749862 -0.570071 -14.7558 -0.749862 -0.570071 19.2579
8491 1 -0.0899764 -12.9376 -3.85105 -0.0899764 -12.9376 -3.85105
2939 1 -14.108 -16.2833 -13.6048 -14.108 -16.2833 20.4089
9552 1 -12.6317 -16.7102 -13.2293 21.382 -16.7102 -13.2293
12348 1 -9.77684 -16.4668 -12.2346 24.2369 -16.4668 -12.2346
9907 1 -16.807 -4.94598 -10.5882 17.2067 -4.94598 -10.5882
855 1 -8.50532 -15.7872 -12.1949 -8.50532 -15.7872 -12.1949
7613 1 -9.45301 -16.1816 -13.5204 -9.45301 17.8321 20.4933
5518 1 -6.93636 -16.4262 -13.9637 -6.93636 17.5875 -13.9637
5608 1 -5.39442 -15.1959 -12.6773 -5.39442 18.8178 -12.6773
15784 1 -15.7274 -4.76188 -0.484627 18.2863 -4.76188 -0.484627
5577 1 -4.16816 -15.6396 -12.7183 -4.16816 18.3741 -12.7183
15460 1 -4.02306 -15.7427 -14.3585 29.9907 18.271 19.6552
1229 1 -1.57653 -16.7324 -14.1307 -1.57653 -16.7324 -14.1307
1514 1 -15.259 -15.0218 -13.0262 -15.259 -15.0218 -13.0262
15926 1 -15.6781 -14.4602 -12.1208 18.3356 19.5535 21.8929
8192 1 -13.9333 -14.251 -12.7672 -13.9333 19.7627 21.2465
6076 1 -14.0308 -15.7804 -12.5578 -14.0308 18.2333 -12.5578
6866 1 -13.4428 -14.843 -13.6621 -13.4428 19.1707 20.3516
4438 1 -9.61163 -15.3041 -12.5807 -9.61163 18.7096 -12.5807
1193 1 -10.1628 -14.8955 -13.7823 -10.1628 -14.8955 -13.7823
10535 1 -7.29318 -14.6193 -13.896 26.7205 -14.6193 -13.896
15998 1 -5.19897 -16.2381 -13.8729 -5.19897 -16.2381 20.1408
1339 1 -6.72118 -13.8504 -13.3509 -6.72118 -13.8504 -13.3509
12118 1 -4.28741 -14.4631 -12.2113 -4.28741 -14.4631 -12.2113
3417 1 -5.92998 -15.2008 -14.1027 -5.92998 -15.2008 19.911
804 1 -2.30192 -14.7249 -13.1991 -2.30192 -14.7249 -13.1991
14552 1 -2.76317 -14.2942 -14.4925 -2.76317 19.7195 19.5212
2659 1 -13.6192 -0.992623 -0.242545 -13.6192 -0.992623 -0.242545
11033 1 -16.2103 -13.3024 -14.4302 17.8034 -13.3024 19.5835
9239 1 -15.9053 -13.6824 -13.2998 18.1084 20.3313 -13.2998
11940 1 -11.9135 -14.3773 -13.5431 22.1002 -14.3773 20.4706
10207 1 -14.1306 -12.0858 -13.6288 19.8831 -12.0858 -13.6288
9994 1 -11.9156 -13.0163 -12.4956 22.0981 -13.0163 -12.4956
12072 1 -9.52347 -14.453 -14.6934 24.4902 -14.453 19.3203
3070 1 -8.03948 -13.0607 -12.9951 -8.03948 -13.0607 21.0186
4030 1 -6.07273 -13.967 -14.2603 -6.07273 -13.967 19.7534
11234 1 -4.65072 -12.3149 -13.5955 -4.65072 -12.3149 20.4183
12550 1 -4.98372 -13.4627 -13.2905 -4.98372 -13.4627 -13.2905
8889 1 -1.29479 -12.7585 -13.8606 -1.29479 -12.7585 -13.8606
3882 1 -0.141399 -13.2751 -12.2801 -0.141399 -13.2751 -12.2801
256 1 -14.8858 -10.619 -13.2736 -14.8858 -10.619 -13.2736
736 1 -13.2795 -10.8669 -14.6476 -13.2795 -10.8669 -14.6476
2238 1 -13.2056 -13.0661 -13.0548 -13.2056 -13.0661 20.9589
12886 1 -10.3577 -12.5926 -13.7795 -10.3577 21.4211 -13.7795
273 1 -11.5087 -11.5984 -13.1351 -11.5087 -11.5984 -13.1351
1663 1 -9.08018 -12.8944 -12.9031 -9.08018 -12.8944 -12.9031
6512 1 -7.55015 -12.083 -13.8198 -7.55015 21.9307 20.1939
11513 1 -5.43505 -12.7188 -12.6931 -5.43505 -12.7188 21.3206
16370 1 -5.26679 -10.841 -13.9881 -5.26679 23.1727 20.0256
10121 1 -2.15014 -13.498 -12.7586 -2.15014 -13.498 -12.7586
12783 1 -3.44176 -11.9221 -13.0971 -3.44176 22.0916 -13.0971
10844 1 -1.37902 -12.5782 -12.5967 -1.37902 -12.5782 21.417
1241 1 -0.994853 -11.8283 -15.0962 -35.0086 -11.8283 -15.0962
8294 1 -1.04155 -11.2481 -13.6131 -1.04155 -11.2481 -13.6131
4923 1 -15.2753 -10.9102 -14.5044 -15.2753 23.1035 -14.5044
15063 1 -14.369 -16.5393 -2.21043 19.6447 17.4744 -2.21043
9831 1 -14.4904 -9.59377 -13.1233 19.5233 -9.59377 -13.1233
8527 1 -13.3712 -10.7494 -13.6131 20.6425 -10.7494 -13.6131
11950 1 -10.6419 -10.9378 -13.7839 23.3718 -10.9378 20.2298
2569 1 -11.0243 -9.69292 -13.3497 -11.0243 -9.69292 20.664
1798 1 -9.59364 -10.7434 -13.4791 -9.59364 -10.7434 -13.4791
3645 1 -8.61 -10.4697 -14.076 -8.61 -10.4697 19.9377
13343 1 -7.48865 -10.8129 -14.1218 -7.48865 23.2008 -14.1218
2490 1 -5.59547 -11.7891 -13.6356 -5.59547 -11.7891 20.3781
839 1 -4.18251 -11.2384 -12.9559 -4.18251 -11.2384 -12.9559
1675 1 -4.789 -10.0474 -12.5007 -4.789 -10.0474 -12.5007
1831 1 -3.35361 -9.77231 -13.0753 -3.35361 -9.77231 -13.0753
13639 1 -2.64103 -10.2841 -12.0918 -2.64103 23.7296 -12.0918
7166 1 -2.15266 -11.6277 -13.9645 -36.1664 22.386 20.0492
6230 1 -0.529274 -10.1241 -13.9803 -0.529274 -10.1241 20.0335
6853 1 -15.9113 -10.4124 -13.2416 -15.9113 23.6013 20.7721
11955 1 -14.5906 -7.00065 -14.015 -14.5906 -7.00065 19.9987
10385 1 -12.9713 -9.64057 -13.3927 21.0424 -9.64057 -13.3927
3748 1 -13.9506 -8.58997 -12.7456 -13.9506 -8.58997 21.2681
5086 1 -12.5558 -11.4949 -13.7594 -12.5558 22.5188 20.2543
2243 1 -10.4486 -8.11789 -13.3096 -10.4486 -8.11789 20.7041
10702 1 -9.68819 -10.1949 -11.0763 -9.68819 -10.1949 22.9374
12785 1 -7.86543 -9.4869 -14.0094 -7.86543 -9.4869 -14.0094
1321 1 -6.30234 -9.93543 -12.7048 -6.30234 -9.93543 -12.7048
7878 1 -7.19251 -9.13931 -12.8144 -7.19251 24.8744 21.1993
8657 1 -4.28803 -9.33587 -13.9532 -4.28803 -9.33587 -13.9532
10240 1 -2.04972 -10.6427 -13.2418 -2.04972 -10.6427 -13.2418
363 1 -2.34863 -9.48691 -12.6438 -2.34863 -9.48691 -12.6438
2454 1 -1.2475 -8.44948 -13.5364 -1.2475 -8.44948 -13.5364
13768 1 -0.567375 -9.04892 -12.7864 -0.567375 24.9648 -12.7864
14547 1 -16.1051 -8.32497 -14.4399 17.9086 -8.32497 19.5738
3649 1 -15.7722 -6.12822 -13.8718 -15.7722 -6.12822 -13.8718
10399 1 -12.4782 -6.14823 -13.3103 21.5355 -6.14823 -13.3103
2381 1 -11.6748 -7.92071 -13.4714 -11.6748 -7.92071 20.5424
12124 1 -10.313 -7.81649 -14.5239 -10.313 -7.81649 -14.5239
6141 1 -8.90565 -6.98947 -12.8227 -8.90565 27.0242 21.191
10453 1 -10.0923 -6.2073 -14.642 23.9214 -6.2073 19.3717
14117 1 -8.04538 -8.1872 -13.6213 -8.04538 -8.1872 -13.6213
13515 1 -5.87115 -8.47113 -13.2008 28.1426 -8.47113 -13.2008
13514 1 -6.59034 -6.85137 -13.0231 -6.59034 -6.85137 -13.0231
1727 1 -5.12477 -8.39131 -11.8947 -5.12477 -8.39131 -11.8947
4474 1 -3.33051 -8.3006 -13.2138 -3.33051 25.7131 -13.2138
4941 1 -2.51012 -7.5464 -13.2992 -2.51012 26.4673 -13.2992
12283 1 -1.03528 -7.35366 -13.0894 -1.03528 -7.35366 20.9243
8875 1 -12.6852 -0.917638 -9.60058 21.3285 -0.917638 -9.60058
5901 1 -17.0043 -6.38945 -11.901 -17.0043 -6.38945 -11.901
1710 1 -13.7155 -5.89328 -13.5513 -13.7155 -5.89328 -13.5513
763 1 -11.0612 -6.58272 -14.053 -11.0612 -6.58272 -14.053
352 1 -10.6911 -5.75397 -12.2824 -10.6911 -5.75397 -12.2824
12149 1 -7.91775 -6.16079 -13.0105 -7.91775 -6.16079 21.0032
11751 1 -5.43873 -5.3757 -13.5735 28.575 -5.3757 20.4402
10354 1 -5.59754 -6.69647 -13.0326 28.4162 -6.69647 -13.0326
350 1 -3.51438 -6.64594 -14.3317 -3.51438 -6.64594 -14.3317
11915 1 -3.80115 -5.15673 -13.2408 -3.80115 -5.15673 20.773
9790 1 -1.78441 -5.78911 -14.116 -1.78441 -5.78911 -14.116
9666 1 -14.8461 -5.36898 -13.5911 19.1676 -5.36898 -13.5911
14183 1 -14.8022 -5.10444 -12.0476 19.2115 28.9093 -12.0476
1511 1 -14.1274 -5.61628 -15.0974 -14.1274 -5.61628 -15.0974
2735 1 -13.1645 -5.21819 -14.1161 -13.1645 -5.21819 -14.1161
4753 1 -12.1965 -5.95906 -14.4457 -12.1965 -5.95906 -14.4457
13232 1 -10.1043 -4.76046 -12.7023 23.9095 -4.76046 -12.7023
12483 1 -11.584 -5.6417 -13.1758 -11.584 -5.6417 -13.1758
9330 1 -8.58625 -6.31455 -14.4834 25.4275 -6.31455 -14.4834
1741 1 -5.59231 -5.22332 -14.8307 -5.59231 -39.237 -14.8307
2075 1 -4.20968 -5.63091 -14.5004 -4.20968 -5.63091 19.5133
8390 1 -5.20902 -4.04758 -13.9367 -5.20902 -4.04758 -13.9367
3114 1 -3.13679 -4.40303 -13.5528 -3.13679 -4.40303 -13.5528
12487 1 -7.57566 -16.9916 -1.66418 -7.57566 17.0221 -1.66418
5076 1 -15.907 -2.97939 -13.0188 -15.907 31.0343 -13.0188
80 1 -15.0876 -3.80977 -14.6168 -15.0876 -3.80977 -14.6168
7197 1 -14.1603 -4.09545 -13.9647 -14.1603 -4.09545 20.0491
3574 1 -15.0101 -3.91158 -12.8778 -15.0101 -3.91158 21.1359
4904 1 -13.1562 -3.88679 -13.7177 -13.1562 -3.88679 -13.7177
5332 1 -12.3755 -4.04981 -14.7961 -12.3755 -4.04981 19.2176
2727 1 -11.3724 -2.81583 -12.3165 -11.3724 -2.81583 -12.3165
12986 1 -9.9345 -1.7937 -13.7696 -9.9345 -1.7937 -13.7696
622 1 -10.3183 -3.66546 -13.1857 -10.3183 -3.66546 -13.1857
10130 1 -6.74187 -4.05277 -13.2891 27.2718 -4.05277 -13.2891
15523 1 -6.43305 -2.85575 -13.2607 -6.43305 -2.85575 20.753
1679 1 -4.24133 -3.73282 -14.3024 -4.24133 -3.73282 -14.3024
6507 1 -3.63668 -3.98383 -12.4697 -3.63668 30.0299 -12.4697
6601 1 -1.14628 -4.79145 -13.0611 -1.14628 -4.79145 20.9526
12173 1 -16.4887 -1.40871 -11.6641 17.525 -1.40871 22.3496
2366 1 -15.713 -1.68291 -13.222 -15.713 -1.68291 20.7918
8736 1 -13.5198 -2.13808 -13.5371 20.4939 -2.13808 -13.5371
1527 1 -12.2479 -2.21241 -13.8874 -12.2479 -2.21241 -13.8874
11740 1 -11.4625 -2.88868 -13.7266 22.5512 -2.88868 20.2871
3805 1 -8.27171 -1.99832 -14.0557 -8.27171 -1.99832 19.958
13491 1 -9.10805 -2.82384 -13.1974 24.9057 31.1899 -13.1974
5220 1 -6.97917 -1.85462 -14.1551 -6.97917 -1.85462 -14.1551
9221 1 -7.56113 -2.99828 -13.7348 -7.56113 -2.99828 -13.7348
9206 1 -6.18013 -1.45761 -13.182 -6.18013 -1.45761 -13.182
9361 1 -5.31802 -0.826593 -13.8779 -5.31802 -0.826593 -13.8779
8961 1 -5.29608 -2.98563 -14.0784 -5.29608 -2.98563 -14.0784
2841 1 -2.77994 -2.66444 -13.9423 -2.77994 -2.66444 20.0714
4386 1 -2.1562 -3.46738 -13.4471 -2.1562 -3.46738 -13.4471
12405 1 -0.587375 -3.45637 -13.6831 -0.587375 -3.45637 -13.6831