ITEM: TIMESTEP
3500
ITEM: NUMBER OF ATOMS
16384
ITEM: BOX BOUNDS pp pp pp
-1.7006855707231768e+01 1.7006855707231768e+01
-1.7006855707231768e+01 1.7006855707231768e+01
-1.7006855707231768e+01 1.7006855707231768e+01
ITEM: ATOMS id type x y z xu yu zu
4014 1 -16.2384 -16.0024 -16.8289 -16.2384 -16.0024 17.1849
7216 1 -15.1736 -16.3746 -16.7988 -15.1736 17.6391 17.2149
6256 1 -14.4651 -15.6767 -15.578 -14.4651 18.337 18.4357
10801 1 -13.8128 -16.2823 -16.6462 20.201 17.7314 17.3675
10116 1 -4.44101 -16.7631 -0.78155 29.5727 -16.7631 -0.78155
12377 1 -13.3384 -16.8045 -15.8188 20.6753 17.2092 -15.8188
15997 1 -9.52266 -16.5064 -16.0512 -9.52266 17.5073 17.9625
3899 1 -8.37256 -15.7639 -16.6028 -8.37256 -15.7639 17.4109
1704 1 -1.48138 -16.4236 -4.75902 -1.48138 -16.4236 -4.75902
1461 1 -5.81582 -16.7439 -15.9756 -5.81582 -16.7439 -15.9756
4519 1 -7.23341 -17.0109 -15.3682 -7.23341 17.0028 -15.3682
11572 1 -4.58913 -16.3851 -15.3721 -4.58913 17.6286 18.6416
13586 1 -15.9059 -0.0270136 -0.675616 18.1078 -0.0270136 -0.675616
10502 1 -2.15676 -16.0823 -16.4687 31.8569 -16.0823 17.545
14759 1 -0.821954 -15.55 -16.843 -0.821954 18.4638 17.1707
5989 1 -16.0588 -14.4466 -16.2697 -16.0588 19.5671 -16.2697
11551 1 -14.5174 -14.66 -16.1635 19.4963 19.3537 17.8502
11628 1 -13.0452 -14.9859 -16.6133 20.9685 -14.9859 17.4004
13995 1 -9.80216 -14.8085 -16.5601 -9.80216 19.2052 -16.5601
5767 1 -10.2506 -16.1091 -15.371 -10.2506 17.9046 -15.371
1281 1 -8.91984 -14.7484 -15.748 -8.91984 -14.7484 -15.748
9758 1 -0.257481 -0.285285 -12.4131 -0.257481 -0.285285 -12.4131
14052 1 -8.11873 -13.9801 -16.456 25.895 20.0337 -16.456
1970 1 -7.89704 -15.7654 -15.4738 -7.89704 -15.7654 -15.4738
10048 1 -5.90028 -14.5081 -16.257 -5.90028 -14.5081 -16.257
4926 1 -6.53733 -15.4158 -16.3548 -6.53733 18.5979 -16.3548
7864 1 -5.04907 -15.577 -16.402 -5.04907 18.4367 17.6117
12118 1 -4.09702 -14.7805 -15.797 -4.09702 -14.7805 -15.797
910 1 -2.90297 -15.1453 -15.9606 -2.90297 -15.1453 -15.9606
1852 1 -1.34814 -14.9361 -15.8704 -1.34814 -14.9361 -15.8704
8917 1 -6.52491 -0.354138 -10.9467 -6.52491 -0.354138 -10.9467
8453 1 -15.545 -12.9972 -16.4054 18.4687 -12.9972 -16.4054
11940 1 -13.6796 -13.0281 -15.9551 20.3341 -13.0281 18.0586
5786 1 -13.2825 -13.989 -16.9566 -13.2825 20.0247 -16.9566
2238 1 -12.622 -13.1092 -15.1156 -12.622 -13.1092 18.8981
6866 1 -12.0024 -14.2468 -16.1537 -12.0024 19.7669 17.86
3531 1 -12.4232 -12.785 -16.7465 -12.4232 -12.785 17.2672
1327 1 -10.7917 -13.2356 -16.6866 -10.7917 -13.2356 -16.6866
5478 1 -8.6597 -12.8479 -16.3902 -8.6597 21.1658 -16.3902
5021 1 -7.26007 -12.9301 -16.9403 -7.26007 21.0836 -16.9403
1795 1 -4.84356 -13.8113 -16.4787 -4.84356 -13.8113 -16.4787
15863 1 -2.44926 -11.9462 -15.7053 -2.44926 22.0675 18.3084
10788 1 -2.62432 -13.6711 -16.1198 31.3894 -13.6711 17.8939
10478 1 -1.22381 -13.5145 -15.8986 -1.22381 -13.5145 18.1151
775 1 -8.65667 -16.9834 -7.6663 -8.65667 -16.9834 -7.6663
8635 1 -14.6304 -11.7316 -16.1127 19.3834 -11.7316 -16.1127
13199 1 -12.597 -11.2172 -16.7088 -12.597 22.7965 -16.7088
1663 1 -11.1165 -11.5839 -15.6215 -11.1165 -11.5839 -15.6215
7734 1 -9.72278 -13.1924 -16.0087 -9.72278 20.8213 18.005
2449 1 -7.72385 -11.8175 -15.8491 -7.72385 -11.8175 18.1647
1048 1 -6.57444 -12.3728 -15.6651 -6.57444 -12.3728 -15.6651
3460 1 -5.50306 -12.8055 -16.1058 -5.50306 -12.8055 -16.1058
3906 1 -5.40295 -11.833 -15.7152 -5.40295 -11.833 18.2985
6849 1 -4.43357 -11.0337 -16.1998 -4.43357 -11.0337 17.8139
11401 1 -3.65843 -12.7227 -16.5392 -3.65843 -12.7227 17.4745
6882 1 -11.028 -16.9953 -13.7655 -11.028 17.0184 -13.7655
2010 1 -1.32208 -12.3567 -16.7043 -1.32208 -12.3567 17.3095
8288 1 -15.6118 -10.1616 -16.7418 18.4019 -10.1616 -16.7418
10276 1 -16.8545 -10.701 -16.7476 17.1592 -10.701 -16.7476
2794 1 -16.0185 -11.8219 -16.5849 -16.0185 -11.8219 17.4288
9359 1 -14.3464 -10.0078 -16.41 19.6674 -10.0078 -16.41
2243 1 -11.0418 -9.78694 -16.1056 -11.0418 -9.78694 17.9081
8072 1 -10.2308 -10.8081 -15.9114 -10.2308 23.2056 18.1023
8774 1 -9.32074 -12.1155 -16.1102 -9.32074 -12.1155 -16.1102
9592 1 -8.30899 -10.8468 -16.324 -8.30899 -10.8468 -16.324
6129 1 -6.38077 -10.8463 -15.8837 -6.38077 -10.8463 18.13
271 1 -5.042 -10.0768 -16.077 -5.042 -10.0768 -16.077
3816 1 -2.66957 -10.0738 -15.8113 -2.66957 -10.0738 18.2024
16272 1 -5.77092 -0.262051 -13.0285 28.2428 -0.262051 20.9852
11063 1 -1.29938 -10.2683 -15.6801 -1.29938 -10.2683 18.3336
6397 1 -0.00512847 -11.2426 -15.7886 -0.00512847 22.7711 18.2251
8581 1 -0.353294 -9.54874 -16.2803 -0.353294 -9.54874 -16.2803
1651 1 -15.0203 -8.29617 -16.948 -15.0203 -8.29617 -16.948
10480 1 -11.7679 -16.7247 -9.66373 22.2458 -16.7247 -9.66373
8965 1 -12.3862 -9.92993 -15.6506 21.6275 -9.92993 -15.6506
15587 1 -9.92169 -9.56914 -16.2149 24.092 -9.56914 17.7988
2163 1 -8.53845 -8.29386 -16.0604 -8.53845 -8.29386 17.9533
15352 1 -7.04402 -9.14418 -15.095 26.9697 -9.14418 18.9188
2063 1 -5.76026 -8.95558 -16.5686 -5.76026 -8.95558 17.4451
10137 1 -4.09461 -9.14976 -16.5349 -4.09461 -9.14976 -16.5349
3995 1 -1.92007 -9.11438 -16.0034 -1.92007 -9.11438 18.0103
10152 1 -3.93567 -0.198177 -10.4825 -3.93567 -0.198177 -10.4825
12128 1 -14.1874 -7.80322 -15.9275 -14.1874 -7.80322 -15.9275
1378 1 -13.6814 -8.98583 -16.3301 -13.6814 -8.98583 -16.3301
2724 1 -13.031 -7.14797 -16.8507 -13.031 -7.14797 17.163
7013 1 -12.2526 -7.63373 -16.3219 -12.2526 26.38 17.6918
12672 1 -9.82864 -6.9697 -15.9357 24.1851 -6.9697 -15.9357
7263 1 -7.74076 -7.5635 -16.7148 -7.74076 26.4502 17.2989
13515 1 -5.81986 -8.06708 -15.5306 28.1939 -8.06708 -15.5306
12813 1 -12.0027 -0.0218336 -6.57003 22.011 -0.0218336 -6.57003
9916 1 -3.39667 -7.61524 -15.2579 -3.39667 -7.61524 -15.2579
7387 1 -2.72103 -8.49867 -16.4786 -2.72103 25.515 17.5352
15213 1 -2.51843 -7.54264 -16.0428 -2.51843 26.4711 17.9709
15421 1 -1.00211 -7.87581 -15.8518 -1.00211 26.1379 -15.8518
7182 1 -14.3986 -16.8026 -11.7837 -14.3986 17.2111 22.23
4844 1 -10.0929 -16.759 -0.660423 -10.0929 17.2547 -0.660423
5379 1 -15.8833 -7.04949 -16.0832 -15.8833 26.9642 -16.0832
2254 1 -16.7694 -5.65858 -15.7286 -16.7694 -5.65858 18.2851
9267 1 -14.0134 -6.54343 -16.2788 20.0003 -6.54343 -16.2788
4310 1 -14.7744 -6.08877 -15.8015 -14.7744 27.9249 -15.8015
5410 1 -4.51073 -0.500563 -0.448841 -4.51073 -0.500563 -0.448841
13964 1 -12.864 -5.61275 -15.9686 -12.864 -5.61275 -15.9686
10912 1 -11.7377 -6.38623 -16.7006 22.276 -6.38623 17.3131
704 1 -10.7166 -6.61239 -16.4441 -10.7166 -6.61239 -16.4441
3885 1 -8.72821 -6.39311 -16.7943 -8.72821 -6.39311 17.2194
717 1 -2.69382 -5.1042 -0.169656 -2.69382 -5.1042 -0.169656
1321 1 -5.78018 -6.76825 -15.5109 -5.78018 -6.76825 -15.5109
9710 1 -4.37381 -0.0584924 -4.45193 -4.37381 -0.0584924 -4.45193
1666 1 -4.58403 -7.14222 -16.3201 -4.58403 -7.14222 -16.3201
10134 1 -3.82472 -6.09487 -16.6919 -3.82472 -6.09487 -16.6919
1707 1 -1.65058 -5.97697 -16.5355 -1.65058 -5.97697 -16.5355
1042 1 -10.137 -0.189652 -0.857136 -10.137 -0.189652 -0.857136
9790 1 -0.0511069 -5.81647 -15.8703 -0.0511069 -5.81647 -15.8703
2288 1 -14.2719 -4.1349 -16.6717 -14.2719 -4.1349 17.342
14912 1 -0.0289448 -2.69062 -11.7053 -0.0289448 -2.69062 22.3084
12779 1 -8.23846 -16.9188 -3.46846 25.7752 17.0949 -3.46846
13684 1 -13.2448 -4.48869 -16.0691 20.7689 -4.48869 -16.0691
14117 1 -9.84697 -5.51233 -16.3055 -9.84697 -5.51233 -16.3055
11830 1 -10.4189 -4.91325 -15.536 23.5948 -4.91325 18.4777
7782 1 -9.02957 -3.41065 -15.5109 -9.02957 -3.41065 18.5028
11190 1 -8.71643 -4.91088 -15.846 -8.71643 -4.91088 18.1677
12771 1 -6.98596 -5.91801 -16.1515 -6.98596 28.0957 -16.1515
5432 1 -2.95904 -16.9103 -4.78387 -2.95904 17.1035 -4.78387
7149 1 -4.44282 -5.13603 -16.7086 -4.44282 -5.13603 17.3052
11361 1 -3.92424 -1.72372 -0.482836 -3.92424 -1.72372 -0.482836
5089 1 -2.94013 -4.32158 -15.4845 -2.94013 -4.32158 -15.4845
7837 1 -2.71109 -5.2984 -16.5748 -2.71109 -5.2984 17.439
6519 1 -0.93096 -4.84758 -16.8592 -0.93096 -4.84758 17.1545
13146 1 -16.2325 -4.04338 -16.2468 17.7812 -4.04338 -16.2468
15754 1 -14.1111 -3.27983 -15.847 19.9027 -3.27983 18.1667
2906 1 -11.7123 -2.86989 -16.266 -11.7123 -2.86989 17.7477
84 1 -11.7991 -4.67833 -16.6892 -11.7991 -4.67833 -16.6892
10909 1 -10.6465 -3.76976 -16.1691 23.3672 -3.76976 17.8446
3495 1 -7.76653 -4.29874 -15.8715 -7.76653 -4.29874 18.1422
5081 1 -7.0325 -3.40896 -16.6111 -7.0325 -3.40896 -16.6111
1788 1 -6.11772 -4.05408 -16.1915 -6.11772 -38.0678 -16.1915
10407 1 -2.68404 -3.57629 -16.2148 -2.68404 -3.57629 -16.2148
11231 1 -4.0962 -4.44903 -15.7951 -4.0962 -4.44903 18.2186
2026 1 -4.27652 -2.5682 -16.3382 -4.27652 -36.5819 -16.3382
9082 1 -1.25607 -3.23148 -16.6826 -1.25607 -3.23148 -16.6826
9410 1 -16.4122 -2.44935 -15.6418 17.6015 -2.44935 -15.6418
15607 1 -16.3247 -1.71713 -16.9246 17.6891 -1.71713 17.0891
865 1 -15.2382 -3.21796 -16.3099 -15.2382 -3.21796 -16.3099
2366 1 -14.1585 -1.49362 -16.8914 -14.1585 -1.49362 17.1223
570 1 -12.7522 -3.41809 -15.8055 -12.7522 -3.41809 -15.8055
5131 1 -12.1902 -1.9483 -15.0724 -12.1902 -1.9483 -15.0724
3401 1 -10.3503 -1.84267 -16.1053 -10.3503 -1.84267 17.9084
1279 1 -8.76218 -2.18042 -16.0797 -8.76218 -2.18042 -16.0797
14411 1 -7.71578 -1.60728 -15.5946 -7.71578 -1.60728 18.4191
12301 1 -6.46525 -2.43631 -16.6113 -6.46525 -2.43631 17.4024
9361 1 -6.11491 -1.58575 -15.0683 -6.11491 -1.58575 -15.0683
12090 1 -6.5791 -1.13098 -16.4115 27.4346 -1.13098 17.6022
7492 1 -5.55425 -2.02963 -15.8075 -5.55425 -2.02963 18.2062
3839 1 -3.0561 -2.22749 -14.8303 -3.0561 -2.22749 19.1834
12769 1 -3.41187 -1.81507 -16.744 -3.41187 -1.81507 -16.744
478 1 -2.4167 -2.16735 -16.5487 -2.4167 -36.1811 -16.5487
1472 1 -1.62199 -1.52801 -15.903 -1.62199 -1.52801 -15.903
953 1 -0.60873 -2.64758 -15.983 -0.60873 -2.64758 -15.983
16350 1 -15.4122 -1.19281 -16.0553 18.6016 -1.19281 17.9584
5524 1 -12.4296 -1.58413 -16.6074 -12.4296 -1.58413 -16.6074
14274 1 -8.81256 -16.4118 -2.04054 25.2011 17.6019 -2.04054
2291 1 -11.0665 -0.414275 -16.5968 -11.0665 -0.414275 17.4169
13752 1 -16.7565 -1.60927 -5.90574 17.2572 -1.60927 -5.90574
13268 1 -8.43812 -0.745249 -16.0951 -8.43812 -0.745249 -16.0951
1487 1 -7.95561 -2.09795 -16.8612 -7.95561 -2.09795 -16.8612
13096 1 -4.89841 -1.71603 -16.8856 -4.89841 -1.71603 -16.8856
6799 1 -4.53479 -0.366881 -16.0405 -4.53479 -0.366881 17.9732
12294 1 -1.5612 -0.585404 -16.2649 -1.5612 -0.585404 17.7488
4676 1 -3.22574 -0.700024 -16.0836 -3.22574 -0.700024 -16.0836
12326 1 -15.9217 -15.6267 -15.0377 18.092 -15.6267 18.976
13938 1 -12.648 -9.97353 -0.324497 -12.648 24.0402 -0.324497
7981 1 -15.0514 -15.2995 -14.519 -15.0514 18.7142 19.4947
2939 1 -14.0896 -16.9141 -15.0656 -14.0896 -16.9141 18.9481
13193 1 -12.685 -16.401 -14.2275 21.3287 17.6127 -14.2275
2064 1 -16.6283 -15.9193 -0.930108 -16.6283 -15.9193 -0.930108
12004 1 -11.5943 -16.5509 -16.1758 22.4194 17.4628 17.8379
9994 1 -10.5359 -15.5565 -14.539 23.4778 -15.5565 -14.539
3915 1 -16.712 -14.8338 -3.68348 -16.712 -14.8338 -3.68348
2298 1 -8.48873 -16.246 -14.2662 -8.48873 -16.246 19.7475
15998 1 -6.5823 -15.9934 -14.2531 -6.5823 -15.9934 19.7606
13151 1 -3.49251 -16.5503 -14.6181 -3.49251 17.4634 -14.6181
1661 1 -3.43686 -16.2331 -16.0862 -3.43686 -16.2331 -16.0862
10436 1 -0.577066 -15.2131 -8.05246 -0.577066 -15.2131 -8.05246
11512 1 -1.28853 -16.6568 -15.4276 -1.28853 -16.6568 18.5862
2114 1 -14.5611 -14.0597 -14.6503 -14.5611 -14.0597 19.3634
8786 1 -13.5972 -14.9449 -14.9767 20.4165 -14.9449 -14.9767
6463 1 -12.1897 -15.5089 -14.8766 -12.1897 18.5048 19.1371
14619 1 -11.77 -14.4147 -14.5645 22.2437 19.599 -14.5645
14994 1 -10.9777 -15.028 -15.5712 23.036 18.9857 18.4426
7751 1 -10.158 -13.978 -13.9761 -10.158 20.0357 20.0376
2162 1 -9.07539 -15.5013 -14.9135 -9.07539 -15.5013 19.1002
5482 1 -7.23189 -13.7515 -15.1777 -7.23189 20.2622 -15.1777
9102 1 -7.96501 -14.3863 -14.0061 -7.96501 -14.3863 -14.0061
4718 1 -7.05072 -15.0069 -15.1737 -7.05072 -15.0069 -15.1737
14307 1 -5.84977 -15.6275 -15.2931 28.1639 18.3863 -15.2931
1339 1 -5.14759 -14.368 -14.9643 -5.14759 -14.368 -14.9643
11359 1 -3.20855 -14.4678 -15.2008 -3.20855 -14.4678 18.8129
5413 1 -2.57818 -14.5597 -13.5791 -2.57818 19.454 -13.5791
15558 1 -2.2338 -15.199 -14.8439 -2.2338 18.8147 19.1698
10084 1 -0.924735 -14.797 -14.7581 -0.924735 -14.797 -14.7581
9996 1 -0.432622 -15.6445 -14.0507 33.5811 -15.6445 -14.0507
7293 1 -3.73807 -14.628 -0.00500878 -3.73807 19.3857 -0.00500878
9239 1 -16.4335 -13.2218 -15.2515 17.5802 20.7919 -15.2515
736 1 -15.2406 -12.9519 -15.1802 -15.2406 -12.9519 -15.1802
1414 1 -14.1283 -13.2073 -14.3249 -14.1283 -13.2073 -14.3249
2933 1 -12.299 -13.4618 -14.1392 -12.299 -13.4618 19.8745
6272 1 -11.4304 -13.1641 -15.4364 -11.4304 20.8496 18.5773
12676 1 -10.2221 -12.8761 -14.8279 23.7916 21.1376 -14.8279
4829 1 -9.89383 -14.1628 -15.6097 -9.89383 19.8509 -15.6097
12208 1 -8.02196 -12.805 -15.4546 25.9918 -12.805 18.5592
15533 1 -6.13226 -13.7645 -15.3647 -6.13226 -13.7645 -15.3647
13970 1 -4.647 -13.0667 -15.0186 -4.647 -13.0667 -15.0186
618 1 -3.39924 -12.8469 -15.2119 -3.39924 -12.8469 -15.2119
7564 1 -2.21138 -13.5077 -14.9313 -2.21138 20.506 19.0824
5707 1 -0.876765 -13.4646 -14.4945 -0.876765 20.5491 -14.4945
730 1 -16.091 -11.668 -15.3755 -16.091 -11.668 -15.3755
4146 1 -13.7333 -12.3045 -15.2173 -13.7333 21.7092 -15.2173
3103 1 -15.687 -12.5928 -13.9762 -15.687 -12.5928 20.0375
3471 1 -12.2518 -12.0745 -15.8191 -12.2518 -12.0745 18.1946
8527 1 -11.3745 -11.1689 -14.1987 22.6392 -11.1689 -14.1987
12072 1 -10.0154 -11.6388 -14.2995 23.9983 -11.6388 19.7142
6711 1 -11.7494 -12.4768 -14.5818 -11.7494 21.5369 19.4319
3604 1 -8.46423 -11.0764 -14.3294 -8.46423 -11.0764 19.6843
4030 1 -6.1934 -12.2293 -14.3529 -6.1934 -12.2293 19.6608
13343 1 -4.4306 -11.9158 -15.2769 -4.4306 22.0979 -15.2769
2128 1 -1.33106 -11.3309 -15.8927 -1.33106 -11.3309 18.121
516 1 -1.34781 -12.2475 -14.9825 -1.34781 -12.2475 -14.9825
10844 1 -0.332123 -11.54 -14.4619 -0.332123 -11.54 19.5518
8938 1 -15.301 -10.896 -15.6499 18.7127 -10.896 -15.6499
8825 1 -0.364179 -12.6984 -7.80857 -0.364179 -12.6984 -7.80857
11013 1 -15.2321 -9.61124 -14.5062 18.7816 -9.61124 19.5076
2868 1 -13.4924 -10.6563 -15.8731 -13.4924 -10.6563 18.1406
11950 1 -11.915 -10.6737 -15.0771 22.0987 -10.6737 18.9366
1868 1 -12.8949 -9.83258 -13.9053 -12.8949 -9.83258 -13.9053
10702 1 -10.4694 -10.071 -14.8974 -10.4694 -10.071 19.1163
13170 1 -7.05325 -9.55946 -14.096 -7.05325 24.4543 -14.096
6141 1 -6.97605 -11.2378 -14.6811 -6.97605 22.7759 19.3326
602 1 -5.38834 -11.0574 -14.554 -5.38834 -11.0574 -14.554
4665 1 -4.19136 -10.2975 -15.3768 -4.19136 23.7162 -15.3768
11018 1 -3.43106 -11.3486 -15.3117 -3.43106 -11.3486 18.702
10615 1 -2.31514 -10.062 -14.7843 -2.31514 -10.062 19.2294
9355 1 -1.61399 -11.0576 -14.5623 -1.61399 -11.0576 19.4515
5723 1 -15.0299 -9.49778 -15.7774 -15.0299 24.5159 -15.7774
1228 1 -13.4539 -9.08871 -14.9363 -13.4539 -9.08871 -14.9363
4269 1 -12.0109 -8.85191 -15.4699 -12.0109 -8.85191 -15.4699
4413 1 -10.5615 -9.10343 -14.5235 -10.5615 24.9103 -14.5235
150 1 -8.88119 -10.5896 -15.2995 -8.88119 -10.5896 -15.2995
8711 1 -9.87718 -8.53257 -15.3667 -9.87718 -8.53257 -15.3667
9906 1 -8.46322 -9.16438 -15.24 -8.46322 -9.16438 -15.24
5116 1 -6.05011 -10.1975 -15.0073 -6.05011 -10.1975 -15.0073
3125 1 -5.31153 -9.44497 -15.1427 -5.31153 -9.44497 18.871
2393 1 -3.28869 -8.87769 -15.0897 -3.28869 -8.87769 -15.0897
10790 1 -4.03315 -9.59742 -14.2945 -4.03315 -9.59742 19.7192
3082 1 -0.910367 -9.3465 -15.0265 -0.910367 -9.3465 18.9872
1348 1 -16.2287 -8.83532 -15.7265 -16.2287 -8.83532 -15.7265
898 1 -16.6572 -7.22152 -15.1993 -16.6572 -7.22152 -15.1993
6452 1 -14.7441 -9.01825 -0.276027 -14.7441 -9.01825 -0.276027
189 1 -15.0893 -7.37942 -15.1382 -15.0893 -7.37942 -15.1382
8583 1 -13.3519 -8.20938 -15.5745 -13.3519 -8.20938 -15.5745
2381 1 -12.8937 -7.78636 -13.8785 -12.8937 -7.78636 20.1352
1070 1 -10.997 -7.68458 -16.0997 -10.997 -7.68458 -16.0997
12124 1 -10.5543 -7.46046 -14.886 -10.5543 -7.46046 -14.886
9539 1 -9.01297 -7.57831 -14.8773 -9.01297 -7.57831 -14.8773
1593 1 -8.20635 -7.8579 -13.7523 -8.20635 -7.8579 -13.7523
15403 1 -4.36862 -8.3854 -15.8539 -4.36862 -8.3854 18.1599
5203 1 -5.17763 -7.25882 -13.6727 -39.1913 -7.25882 -13.6727
7878 1 -5.08292 -8.38219 -13.8508 -5.08292 25.6315 20.163
350 1 -1.96659 -8.39448 -14.7527 -1.96659 -8.39448 -14.7527
13720 1 -14.8483 -16.1556 -0.405298 19.1654 17.8581 -0.405298
1366 1 -15.946 -6.16727 -15.092 -15.946 -6.16727 -15.092
2832 1 -13.3007 -6.51731 -15.091 -13.3007 -6.51731 18.9227
8388 1 -11.9863 -6.82214 -15.4802 -11.9863 -6.82214 -15.4802
2478 1 -10.3444 -6.36649 -14.5376 -10.3444 -6.36649 19.4761
1710 1 -11.2331 -7.09168 -13.8637 -11.2331 -7.09168 -13.8637
10453 1 -9.13686 -6.10182 -15.3929 24.8768 -6.10182 18.6208
13013 1 -7.89928 -6.55176 -16.0914 -7.89928 27.462 -16.0914
13514 1 -8.26895 -5.85892 -14.8042 -8.26895 -5.85892 -14.8042
9939 1 -7.13164 -5.72357 -14.6037 -7.13164 -5.72357 -14.6037
11112 1 -7.26751 -7.82602 -15.1706 -7.26751 -7.82602 18.8431
8384 1 -5.5372 -5.7118 -14.6076 -5.5372 -5.7118 -14.6076
461 1 -4.41882 -7.62833 -14.5279 -4.41882 -7.62833 -14.5279
9034 1 -4.36793 -6.04284 -14.1094 -4.36793 -6.04284 -14.1094
10992 1 -2.85742 -6.63513 -15.1442 -2.85742 -6.63513 18.8695
2242 1 -3.23761 -5.52241 -15.5936 -3.23761 -5.52241 18.4201
8968 1 -0.619899 -7.81337 -13.7743 -0.619899 -7.81337 -13.7743
8421 1 -1.66475 -6.975 -15.1415 -1.66475 -6.975 -15.1415
528 1 -15.6018 -5.12588 -15.7467 -15.6018 -5.12588 -15.7467
5891 1 -14.6781 -5.27852 -14.6076 -14.6781 -5.27852 -14.6076
3649 1 -13.8521 -5.23276 -15.2219 -13.8521 -5.23276 -15.2219
5221 1 -11.8653 -5.23867 -15.4204 -11.8653 28.775 18.5933
224 1 -13.0727 -5.78702 -13.8258 -13.0727 -5.78702 -13.8258
4849 1 -10.993 -4.64945 -14.1565 -10.993 29.3643 19.8572
11751 1 -9.71306 -5.31293 -14.4516 24.3007 -5.31293 19.5621
10875 1 -7.26587 -4.71078 -14.9765 26.7478 -4.71078 19.0372
12043 1 -5.60436 -5.35536 -16.0441 -5.60436 -5.35536 17.9696
7029 1 -4.35745 -6.22918 -15.2942 -4.35745 27.7845 18.7195
11257 1 -3.73038 -5.02172 -14.7003 -3.73038 -5.02172 19.3134
16127 1 -1.18738 -5.95954 -15.3064 -1.18738 -5.95954 18.7073
3546 1 -16.2606 -4.68008 -14.6541 -16.2606 -4.68008 -14.6541
16163 1 -14.7744 -3.54767 -14.9344 19.2394 -3.54767 19.0793
6725 1 -13.3601 -4.32328 -14.5357 -13.3601 -4.32328 19.4781
11087 1 -12.5366 -4.95831 -14.4113 -12.5366 -4.95831 19.6024
5332 1 -12.1219 -3.93958 -14.6544 -12.1219 -3.93958 19.3593
13232 1 -11.2762 -2.76799 -15.15 22.7375 -2.76799 -15.15
7698 1 -9.91 -4.2495 -14.4873 -9.91 -4.2495 19.5264
9624 1 -8.3507 -3.0579 -14.3844 25.663 -3.0579 -14.3844
5974 1 -8.84129 -4.10303 -14.2956 -8.84129 -4.10303 -14.2956
3147 1 -7.53765 -2.86856 -15.182 -7.53765 -2.86856 18.8318
14071 1 -5.26325 -4.68478 -15.0698 -5.26325 29.3289 -15.0698
762 1 -6.35424 -3.19281 -15.3714 -6.35424 -3.19281 -15.3714
9145 1 -3.86755 -3.35555 -15.006 -3.86755 -3.35555 -15.006
7710 1 -1.97517 -2.86158 -15.6599 -1.97517 -2.86158 18.3538
3970 1 -1.34919 -4.17849 -15.7531 -1.34919 -4.17849 18.2606
12429 1 -0.273304 -4.21216 -15.1531 -0.273304 29.8016 -15.1531
554 1 -16.5028 -2.80119 -14.1796 -16.5028 -2.80119 -14.1796
1383 1 -15.5481 -2.01872 -14.6582 -15.5481 -2.01872 -14.6582
5076 1 -13.5758 -2.94428 -14.7604 -13.5758 31.0694 -14.7604
9365 1 -14.276 -1.41314 -15.3314 -14.276 -1.41314 -15.3314
3855 1 -10.225 -2.17266 -15.0598 -10.225 -2.17266 18.9539
5352 1 -10.0718 -2.82734 -13.9382 -10.0718 -2.82734 -13.9382
3805 1 -8.06245 -1.92367 -14.3431 -8.06245 -1.92367 19.6706
8871 1 -6.66314 -2.25266 -14.2703 27.3506 -2.25266 -14.2703
8515 1 -5.02187 -2.88441 -14.9531 28.9918 -2.88441 -14.9531
3286 1 -4.86678 -1.52679 -13.6135 -4.86678 -1.52679 -13.6135
4790 1 -2.48619 -1.01228 -15.0939 -2.48619 -1.01228 -15.0939
2980 1 -1.17915 -1.30915 -14.6275 -1.17915 -1.30915 -14.6275
14299 1 -0.98576 -2.82474 -14.9558 -0.98576 -2.82474 -14.9558
5315 1 -16.8291 -1.21161 -16.0013 -16.8291 -1.21161 -16.0013
12753 1 -15.3594 -0.734279 -14.6814 18.6543 -0.734279 -14.6814
2155 1 -13.475 -0.242101 -14.8959 -13.475 -0.242101 19.1178
15392 1 -14.6284 -0.888728 -13.6682 19.3853 -0.888728 20.3455
8736 1 -12.2924 -1.09825 -13.8975 21.7213 -1.09825 -13.8975
12986 1 -12.0433 -0.730722 -14.9874 -12.0433 -0.730722 -14.9874
5678 1 -10.3167 -0.38394 -15.6327 -10.3167 -0.38394 -15.6327
1336 1 -10.8388 -1.0387 -14.4986 -10.8388 -1.0387 -14.4986
6925 1 -9.35475 -1.61014 -15.2703 -9.35475 32.4036 18.7434
15471 1 -9.74852 -0.507921 -14.019 24.2652 -0.507921 19.9947
14727 1 -8.5813 -0.835047 -14.1985 -8.5813 -0.835047 -14.1985
2191 1 -7.82178 -0.605232 -15.0035 -7.82178 -0.605232 19.0102
8063 1 -6.1304 -0.834743 -14.4201 -6.1304 -0.834743 19.5936
12024 1 -4.1814 -1.59998 -15.5385 -4.1814 -1.59998 18.4752
14550 1 -6.30224 -0.142685 -16.0656 -6.30224 -0.142685 17.9481
3835 1 -3.97792 -1.1724 -14.4797 -3.97792 -1.1724 19.534
16166 1 -0.091206 -15.1002 -6.63198 -0.091206 18.9135 27.3817
12678 1 -0.326189 -0.380811 -14.9976 -0.326189 -0.380811 -14.9976
4322 1 -15.4364 -16.1779 -13.4984 -15.4364 17.8358 -13.4984
4859 1 -16.608 -15.8667 -13.8381 -16.608 18.147 -13.8381
1625 1 -13.7407 -15.8806 -14.0528 -13.7407 -15.8806 -14.0528
8731 1 -0.337214 -0.332293 -10.9486 -0.337214 -0.332293 -10.9486
8672 1 -0.135505 -0.461485 -4.31581 -0.135505 -0.461485 -4.31581
5237 1 -7.50713 -16.5252 -13.605 -7.50713 17.4885 20.4088
7613 1 -9.96318 -15.8851 -13.4373 -9.96318 18.1286 20.5764
2544 1 -3.44126 -2.50621 -1.56865 -3.44126 -36.5199 -1.56865
11513 1 -4.80549 -16.5809 -13.8677 -4.80549 -16.5809 20.146
8838 1 -4.4139 -15.4567 -14.5979 -4.4139 -15.4567 -14.5979
804 1 -1.78812 -16.2234 -14.426 -1.78812 -16.2234 -14.426
6969 1 -2.16368 -16.4048 -13.3722 -2.16368 17.6089 20.6415
6998 1 -1.2032 -0.417623 -1.19798 -1.2032 -0.417623 -1.19798
8192 1 -16.5259 -13.9978 -13.2668 -16.5259 20.0159 20.7469
7800 1 -15.8584 -14.2407 -14.3872 -15.8584 19.773 19.6265
1739 1 -14.9615 -14.5424 -13.1769 -14.9615 -14.5424 -13.1769
2910 1 -13.4995 -15.4473 -12.9381 -13.4995 -15.4473 21.0756
6369 1 -11.5418 -15.6794 -13.7399 -11.5418 18.3343 20.2739
1514 1 -13.0089 -14.9435 -13.9307 -13.0089 -14.9435 -13.9307
8535 1 -11.1615 -14.6077 -13.0554 -11.1615 -14.6077 -13.0554
4321 1 -8.99867 -13.9371 -13.6022 -8.99867 -13.9371 -13.6022
1997 1 -9.2052 -15.3164 -12.761 -9.2052 -15.3164 -12.761
321 1 -5.71989 -15.041 -14.2856 -5.71989 -15.041 -14.2856
6420 1 -7.33334 -15.2157 -13.4262 -7.33334 18.798 20.5875
856 1 -5.56152 -15.5047 -13.1544 -39.5752 -15.5047 -13.1544
6016 1 -3.35946 -16.0916 -12.9268 -3.35946 -16.0916 -12.9268
5291 1 -4.04115 -14.1161 -13.8138 -4.04115 19.8976 -13.8138
2474 1 -3.20291 -14.6485 -12.4249 -3.20291 -14.6485 21.5888
5612 1 -1.68735 -13.6218 -13.8808 -1.68735 20.3919 -13.8808
1229 1 -1.00807 -15.306 -13.0621 -1.00807 -15.306 -13.0621
15942 1 -16.6031 -12.6428 -12.1135 17.4106 21.371 -12.1135
8847 1 -15.4601 -13.285 -13.2813 18.5536 -13.285 -13.2813
16266 1 -13.9233 -13.7155 -13.1748 20.0904 20.2982 -13.1748
305 1 -13.4098 -13.0924 -12.4446 -13.4098 -13.0924 -12.4446
12886 1 -10.7862 -13.4405 -13.2399 -10.7862 20.5732 -13.2399
12340 1 -8.19805 -14.2445 -12.8559 -8.19805 -14.2445 21.1578
14809 1 -9.08656 -13.2627 -14.5103 -9.08656 -13.2627 -14.5103
82 1 -6.58214 -13.5532 -14.2576 -6.58214 -13.5532 -14.2576
11234 1 -5.57013 -13.3046 -13.805 -5.57013 -13.3046 20.2087
839 1 -3.52505 -13.0464 -13.9467 -3.52505 -13.0464 -13.9467
10628 1 -1.46399 -14.0934 -12.9382 -1.46399 -14.0934 21.0755
3882 1 -2.47078 -13.0365 -12.9739 -2.47078 -13.0365 -12.9739
1697 1 -8.33643 -0.250918 -12.6358 -8.33643 -0.250918 -12.6358
7695 1 -15.9738 -11.9875 -13.0228 -15.9738 22.0262 20.9909
921 1 -14.4966 -11.8702 -12.768 -14.4966 -11.8702 -12.768
1603 1 -14.1088 -11.9455 -13.8467 -14.1088 -11.9455 -13.8467
4814 1 -12.1742 -12.0419 -13.5774 -12.1742 21.9718 -13.5774
7956 1 -10.7207 -12.0211 -13.2611 -10.7207 21.9926 -13.2611
8960 1 -9.07553 -12.089 -13.7059 24.9382 -12.089 -13.7059
312 1 -7.81911 -12.194 -14.5322 -7.81911 -12.194 19.4815
3070 1 -7.01225 -12.6253 -12.8878 -7.01225 -12.6253 21.1259
1798 1 -7.60454 -11.0537 -13.5333 -7.60454 -11.0537 -13.5333
7289 1 -5.79967 -12.1613 -13.1678 -5.79967 21.8525 20.8459
12295 1 -4.78357 -12.2867 -13.7441 -4.78357 -12.2867 20.2696
8214 1 -3.66557 -11.6799 -14.3143 -3.66557 22.3338 19.6994
12783 1 -2.66081 -11.8407 -14.2156 -2.66081 22.173 -14.2156
10853 1 -3.50953 -12.0482 -12.9847 -3.50953 -12.0482 -12.9847
14498 1 -0.0259407 -12.0176 -12.6663 -0.0259407 -12.0176 21.3474
7166 1 -1.00038 -12.5834 -13.7108 -35.0141 21.4303 20.303
8889 1 -1.82921 -11.8647 -12.7919 -1.82921 -11.8647 -12.7919
12609 1 -16.589 -10.9519 -13.384 17.4247 23.0618 -13.384
888 1 -15.3815 -11.5133 -14.3681 -15.3815 -11.5133 -14.3681
14050 1 -12.6449 -10.3488 -12.8375 21.3688 23.6649 21.1762
10243 1 -13.4067 -11.3578 -14.4964 -13.4067 -11.3578 -14.4964
12058 1 -13.9335 -10.3085 -14.7541 20.0802 -10.3085 19.2596
10385 1 -11.1112 -10.8117 -13.2038 22.9025 -10.8117 -13.2038
352 1 -8.3731 -9.65336 -13.9554 -8.3731 -9.65336 -13.9554
9636 1 -9.99848 -10.9191 -13.3825 -9.99848 -10.9191 -13.3825
15986 1 -5.73966 -10.955 -13.3868 -5.73966 -10.955 20.6269
3645 1 -5.10985 -9.89464 -13.9607 -5.10985 -9.89464 20.053
6318 1 -3.7325 -10.8594 -13.7242 -3.7325 -10.8594 20.2895
8542 1 -2.33139 -10.9009 -13.312 -2.33139 -10.9009 -13.312
13987 1 -16.2519 -9.64325 -12.7118 17.7619 -9.64325 -12.7118
508 1 -16.2237 -10.0917 -14.1445 -16.2237 -10.0917 19.8692
5086 1 -14.8854 -9.24725 -13.5966 -14.8854 24.7665 20.4171
5597 1 -13.6661 -9.16539 -12.9512 -13.6661 24.8483 -12.9512
3263 1 -11.6781 -10.1652 -13.9454 -11.6781 -10.1652 20.0683
8841 1 -11.0529 -8.64805 -12.4127 22.9608 -8.64805 -12.4127
14101 1 -10.6815 -9.49892 -13.0518 -10.6815 24.5148 -13.0518
12785 1 -9.50613 -9.7493 -13.4653 -9.50613 -9.7493 -13.4653
320 1 -7.24806 -8.46987 -13.6172 -7.24806 -8.46987 -13.6172
2022 1 -7.4845 -9.62566 -12.8609 -7.4845 -9.62566 -12.8609
1109 1 -6.51279 -8.657 -12.732 -6.51279 -8.657 -12.732
5756 1 -6.28413 -8.91245 -13.981 -6.28413 25.1013 20.0328
2121 1 -2.39637 -9.9665 -12.7513 -2.39637 -9.9665 -12.7513
4474 1 -1.57553 -9.27393 -13.6866 -1.57553 24.7398 -13.6866
5446 1 -2.59588 -9.03962 -14.0228 -36.6096 -9.03962 -14.0228
3355 1 -0.519041 -9.9374 -13.7979 -0.519041 -9.9374 20.2158
9819 1 -16.2194 -8.76536 -13.56 17.7943 -8.76536 -13.56
3951 1 -14.0068 -8.03894 -14.5482 -14.0068 -8.03894 19.4655
15695 1 -15.1877 -7.82791 -12.8399 18.826 26.1858 21.1738
2761 1 -16.0636 -7.5032 -14.0133 -16.0636 -7.5032 -14.0133
4316 1 -13.8386 -7.93605 -13.2363 -13.8386 26.0777 -13.2363
8777 1 -12.374 -6.37404 -14.6047 -12.374 -6.37404 19.409
15720 1 -12.1992 -9.27478 -13.2608 21.8145 -9.27478 20.7529
1145 1 -11.8086 -8.35388 -14.0746 -11.8086 -8.35388 -14.0746
3748 1 -10.2543 -8.33152 -13.5201 -10.2543 -8.33152 20.4936
791 1 -8.91225 -8.77708 -13.7643 -8.91225 -8.77708 -13.7643
9089 1 -10.0773 -7.03742 -13.0082 -10.0773 -7.03742 -13.0082
8340 1 -7.66756 -8.31953 -12.2831 -7.66756 -8.31953 -12.2831
452 1 -4.85308 -7.99992 -12.5617 -4.85308 -7.99992 -12.5617
1831 1 -3.36912 -8.3238 -13.0352 -3.36912 -8.3238 -13.0352
9990 1 -1.69461 -8.15343 -13.399 -1.69461 -8.15343 -13.399
9579 1 -0.291161 -8.8685 -13.2627 -0.291161 -8.8685 -13.2627
12175 1 -16.1229 -5.60733 -13.8241 17.8908 -5.60733 20.1896
7783 1 -16.1768 -7.56246 -12.5653 -16.1768 26.4512 -12.5653
7447 1 -14.2629 -6.66334 -14.2359 -14.2629 -6.66334 19.7778
5627 1 -15.2543 -6.32328 -13.2915 -15.2543 -6.32328 -13.2915
11955 1 -14.154 -6.33308 -12.8066 -14.154 -6.33308 21.2071
12483 1 -10.3456 -5.96969 -13.235 -10.3456 -5.96969 -13.235
8225 1 -9.28003 -5.66272 -13.4904 -9.28003 -5.66272 -13.4904
7035 1 -7.82452 -6.6418 -13.5894 -7.82452 27.3719 20.4243
1012 1 -6.50847 -6.81606 -14.1772 -6.50847 -6.81606 -14.1772
2075 1 -3.67282 -6.97976 -13.4221 -3.67282 -6.97976 20.5916
5143 1 -1.1745 -6.76056 -14.1612 -1.1745 -6.76056 -14.1612
3114 1 -2.75501 -5.51166 -14.292 -2.75501 -5.51166 -14.292
5230 1 -2.21465 -5.24367 -12.908 -2.21465 -5.24367 -12.908
4062 1 -0.854268 -5.60005 -13.6368 -0.854268 -5.60005 -13.6368
1677 1 -1.63638 -6.6293 -12.8906 -1.63638 -6.6293 -12.8906
468 1 -16.6014 -4.8942 -13.017 -16.6014 -4.8942 -13.017
13312 1 -15.1496 -4.76551 -13.7709 18.8641 -4.76551 -13.7709
5137 1 -14.0122 -4.72937 -13.252 -14.0122 -4.72937 -13.252
9544 1 -8.30963 -5.18447 -13.5183 -8.30963 -5.18447 -13.5183
9593 1 -7.8384 -4.29774 -12.769 26.1753 -4.29774 -12.769
8459 1 -6.5915 -4.65304 -14.0852 -6.5915 -4.65304 -14.0852
8984 1 -4.96465 -5.66448 -12.8933 -4.96465 -5.66448 -12.8933
1741 1 -5.40208 -4.54714 -14.0272 -5.40208 -38.5609 -14.0272
7702 1 -3.48313 -5.81566 -13.2423 -3.48313 -5.81566 20.7714
3078 1 -4.3064 -4.35586 -13.5707 -4.3064 -4.35586 -13.5707
1606 1 -1.58828 -4.47425 -14.3464 -1.58828 -4.47425 -14.3464
9620 1 -15.923 -3.91251 -13.6868 18.0907 -3.91251 -13.6868
4904 1 -14.7382 -3.28629 -13.8154 -14.7382 -3.28629 -13.8154
1527 1 -13.4178 -3.17257 -13.0157 -13.4178 -3.17257 -13.0157
10268 1 -12.5638 -4.85958 -12.9885 21.4499 -4.85958 -12.9885
4403 1 -11.1487 -2.68524 -13.9097 -11.1487 -2.68524 -13.9097
622 1 -10.4581 -3.83306 -13.0903 -10.4581 -3.83306 -13.0903
10506 1 -9.187 -4.52371 -12.8238 24.8267 -4.52371 21.1899
5220 1 -7.16842 -3.28504 -13.7904 -7.16842 -3.28504 -13.7904
4386 1 -4.52674 -3.22729 -13.7787 -4.52674 -3.22729 -13.7787
8961 1 -4.03383 -3.6125 -12.4467 -4.03383 -3.6125 -12.4467
476 1 -2.94617 -3.44891 -13.7878 -2.94617 -3.44891 -13.7878
5317 1 -1.81889 -3.36401 -13.9991 -1.81889 -3.36401 -13.9991
8322 1 -2.11437 -4.02606 -12.8585 -2.11437 -4.02606 -12.8585
15544 1 -0.890673 -4.00011 -13.1796 -0.890673 -4.00011 20.8341
233 1 -13.9306 -2.00801 -13.7651 -13.9306 -2.00801 -13.7651
341 1 -12.6086 -1.43303 -12.9247 -12.6086 -1.43303 -12.9247
3574 1 -12.5179 -2.49661 -13.9371 -12.5179 -2.49661 20.0766
14073 1 -11.0454 -1.58123 -13.2152 -11.0454 -1.58123 -13.2152
2727 1 -9.855 -2.33235 -12.9816 -9.855 -2.33235 -12.9816
5087 1 -8.30911 -2.95507 -13.2461 -8.30911 -2.95507 -13.2461