ITEM: TIMESTEP
9500
ITEM: NUMBER OF ATOMS
16384
ITEM: BOX BOUNDS pp pp pp
-1.7006855707231768e+01 1.7006855707231768e+01
-1.7006855707231768e+01 1.7006855707231768e+01
-1.7006855707231768e+01 1.7006855707231768e+01
ITEM: ATOMS id type x y z xu yu zu
1377 1 -10.9441 -16.9359 -2.57548 -10.9441 -16.9359 -2.57548
1327 1 -12.9679 -16.1182 -16.745 -12.9679 -16.1182 -16.745
4484 1 -10.8059 -15.4668 -16.699 -10.8059 18.5469 -16.699
4614 1 -16.8152 -1.91523 -13.7728 -16.8152 -1.91523 -13.7728
15997 1 -10.0908 -16.7317 -16.2023 -10.0908 17.282 17.8114
1461 1 -8.59971 -16.7923 -16.7035 -8.59971 -16.7923 -16.7035
1690 1 -7.65802 -15.7921 -15.7124 -7.65802 18.2216 -15.7124
5760 1 -6.53039 -16.688 -16.781 -6.53039 17.3258 -16.781
13961 1 -4.46265 -14.9502 -16.173 -4.46265 19.0635 -16.173
15536 1 -2.89794 -15.5261 -16.1101 -2.89794 18.4876 -16.1101
5059 1 -0.35842 -11.6623 -1.19409 -0.35842 -11.6623 -1.19409
10628 1 -2.07978 -14.9374 -15.4383 -2.07978 -14.9374 18.5754
5809 1 -1.68837 -16.5732 -16.1906 -1.68837 17.4406 -16.1906
5000 1 -16.7622 -15.8917 -16.178 17.2515 18.1221 17.8357
5037 1 -15.3525 -15.4755 -16.5299 -15.3525 18.5382 17.4838
2101 1 -14.8265 -15.5603 -15.4656 -14.8265 -15.5603 18.5481
10379 1 -13.9938 -14.8318 -16.3827 20.0199 -14.8318 17.631
12676 1 -12.0934 -15.4218 -16.5546 21.9203 18.5919 -16.5546
7734 1 -10.8583 -14.3525 -15.6854 -10.8583 19.6612 18.3283
2599 1 -9.40887 -14.5562 -16.7868 -9.40887 -14.5562 17.2269
4246 1 -8.81449 -15.477 -15.9964 -8.81449 18.5367 -15.9964
135 1 -13.5816 -16.6784 -7.19095 -13.5816 -16.6784 -7.19095
6420 1 -6.94441 -15.0135 -16.8336 -6.94441 19.0002 17.1801
15205 1 -5.47164 -15.8831 -16.8204 28.5421 18.1306 17.1933
12056 1 -5.9024 -14.7729 -16.0518 -5.9024 19.2408 17.9619
1519 1 -3.13022 -14.1182 -16.896 -3.13022 -14.1182 -16.896
1065 1 -1.90183 -13.9903 -16.3364 -1.90183 -13.9903 -16.3364
15558 1 -0.678564 -14.5104 -16.0872 -0.678564 19.5033 17.9265
15174 1 -16.0605 -14.4181 -16.561 17.9532 -14.4181 17.4527
4910 1 -15.1742 -13.3916 -15.9636 -15.1742 -13.3916 -15.9636
14247 1 -13.8944 -13.6243 -15.6201 -13.8944 20.3894 -15.6201
8774 1 -11.9862 -13.8082 -15.8182 -11.9862 -13.8082 -15.8182
13995 1 -9.56008 -13.649 -15.9694 -9.56008 20.3648 -15.9694
3906 1 -9.52984 -12.8453 -14.9158 -9.52984 -12.8453 19.098
4718 1 -8.22528 -13.2771 -16.0626 -8.22528 -13.2771 -16.0626
1970 1 -7.17425 -13.7943 -16.6915 -7.17425 -13.7943 -16.6915
8500 1 -6.04036 -12.8561 -15.888 -6.04036 -12.8561 -15.888
390 1 -5.05391 -13.8959 -16.6534 -5.05391 -13.8959 17.3603
7826 1 -4.51608 -13.6106 -15.3184 -4.51608 20.4031 18.6954
1363 1 -14.9082 -11.054 -16.1763 -14.9082 -11.054 -16.1763
11886 1 -16.1089 -12.0768 -16.5492 17.9048 -12.0768 17.4645
15178 1 -14.1335 -11.9467 -16.5489 19.8802 22.067 17.4648
9359 1 -12.1976 -12.2777 -16.235 21.8161 -12.2777 -16.235
3531 1 -11.054 -11.8426 -16.1603 -11.054 -11.8426 17.8534
5482 1 -10.9673 -12.9957 -15.8644 -10.9673 21.018 -15.8644
15352 1 -9.87933 -12.4666 -16.4921 24.1344 -12.4666 17.5216
12680 1 -8.1245 -11.2372 -15.6104 -8.1245 22.7765 -15.6104
6265 1 -7.98138 -11.5698 -16.5722 -7.98138 22.4439 17.4415
11401 1 -6.53564 -11.729 -16.3778 -6.53564 -11.729 17.6359
3934 1 -4.99979 -12.5901 -16.3509 -4.99979 -12.5901 17.6628
9347 1 -4.20714 -11.6842 -16.6847 29.8066 -11.6842 -16.6847
618 1 -2.73974 -11.3577 -15.1967 -2.73974 -11.3577 -15.1967
5707 1 -3.40657 -11.9914 -15.9668 -3.40657 22.0223 -15.9668
254 1 -1.42894 -12.9896 -16.5213 -1.42894 -12.9896 -16.5213
11854 1 -15.7707 -10.3139 -16.6319 18.243 -10.3139 17.3818
1883 1 -14.8385 -9.70963 -16.3506 -14.8385 -9.70963 -16.3506
11319 1 -12.7649 -10.9572 -16.5568 21.2489 -10.9572 17.4569
4814 1 -10.0901 -10.4863 -16.2654 -10.0901 23.5274 -16.2654
2449 1 -8.88663 -10.5815 -16.7422 -8.88663 -10.5815 17.2715
13612 1 -7.0003 -10.5631 -16.4053 27.0134 -10.5631 -16.4053
13116 1 -4.92578 -16.5464 -2.5369 -4.92578 17.4673 -2.5369
9246 1 -5.38212 -10.1802 -16.3536 28.6316 -10.1802 -16.3536
1545 1 -16.2886 -16.8344 -0.242796 -16.2886 -16.8344 -0.242796
9355 1 -1.04392 -11.1369 -15.9435 -1.04392 -11.1369 18.0702
4502 1 -9.81581 -0.50945 -16.8222 -9.81581 -0.50945 -16.8222
2918 1 -11.2526 -16.4118 -14.1918 -11.2526 -16.4118 19.8219
416 1 -10.6061 -16.5836 -7.29295 -10.6061 -16.5836 -7.29295
12058 1 -12.7064 -8.98289 -16.9116 21.3073 -8.98289 17.1021
12726 1 -11.662 -9.44956 -16.6599 22.3517 24.5642 -16.6599
1281 1 -10.6374 -9.50503 -15.7603 -10.6374 -9.50503 -15.7603
7432 1 -9.55701 -9.41945 -16.9673 -9.55701 24.5943 17.0465
8711 1 -8.1946 -9.32781 -15.9459 -8.1946 -9.32781 -15.9459
15587 1 -6.95723 -9.4495 -16.572 27.0565 -9.4495 17.4417
948 1 -6.68939 -8.18896 -15.3529 -6.68939 -8.18896 -15.3529
11422 1 -5.8817 -9.31191 -16.8299 28.132 -9.31191 17.1838
11018 1 -5.18506 -8.63689 -15.5911 -5.18506 -8.63689 18.4226
1666 1 -3.59595 -9.36346 -16.1508 -3.59595 -9.36346 -16.1508
8548 1 -2.08697 -9.63806 -16.5415 -2.08697 -9.63806 -16.5415
10790 1 -2.36205 -8.33497 -16.6445 -2.36205 -8.33497 17.3692
11923 1 -0.750282 -9.52339 -15.3976 -0.750282 -9.52339 -15.3976
2256 1 -16.7264 -7.89201 -15.4399 -16.7264 -7.89201 18.5739
15778 1 -16.354 -8.82178 -16.8784 17.6597 25.1919 17.1353
9400 1 -15.3427 -6.86837 -16.5844 18.671 -6.86837 17.4294
10243 1 -13.9515 -8.44774 -15.7719 -13.9515 -8.44774 -15.7719
7013 1 -13.351 -7.74179 -16.6383 -13.351 26.2719 17.3754
14777 1 -12.4844 -8.12884 -16.2438 21.5293 -8.12884 17.7699
6218 1 -10.0194 -8.59529 -15.8349 -10.0194 25.4184 18.1788
6811 1 -0.0629317 -3.28638 -0.516594 -0.0629317 -3.28638 -0.516594
7263 1 -8.37616 -7.26396 -16.5044 -8.37616 26.7497 17.5093
1853 1 -0.718057 -9.98029 -16.3778 -0.718057 -9.98029 -16.3778
5446 1 -5.6333 -7.59985 -16.2735 -39.647 -7.59985 -16.2735
15213 1 -3.52443 -8.33096 -17.0096 -3.52443 25.6827 17.0041
16127 1 -4.33304 -7.93849 -16.4779 -4.33304 -7.93849 17.5358
15421 1 -0.537257 -8.51279 -16.6731 -0.537257 25.5009 -16.6731
9990 1 -1.73028 -7.23856 -15.8184 -1.73028 -7.23856 -15.8184
4260 1 -0.382213 -6.6817 -16.7988 -0.382213 -6.6817 -16.7988
528 1 -16.5157 -6.29733 -16.9511 -16.5157 -6.29733 -16.9511
11013 1 -13.9481 -6.44887 -16.3012 20.0656 -6.44887 17.7125
12128 1 -14.8457 -5.61108 -16.6862 -14.8457 -5.61108 -16.6862
5727 1 -12.4872 -6.53363 -16.2709 -12.4872 -6.53363 -16.2709
12672 1 -9.69737 -6.99672 -15.8382 24.3163 -6.99672 -15.8382
4175 1 -2.00715 -16.9644 -5.22213 -2.00715 17.0493 -5.22213
5221 1 -8.138 -5.67142 -15.8777 -8.138 28.3423 18.136
16116 1 -6.98146 -6.47036 -15.4522 27.0323 27.5434 18.5615
5089 1 -4.4228 -6.31119 -16.0274 -4.4228 -6.31119 -16.0274
5034 1 -7.24431 -16.8961 -5.34168 -7.24431 17.1176 -5.34168
3698 1 -9.90814 -0.108872 -0.379773 -9.90814 -0.108872 -0.379773
8421 1 -3.07793 -7.08465 -15.9848 -3.07793 -7.08465 -15.9848
12429 1 -1.95948 -6.98609 -16.9772 -1.95948 27.0276 -16.9772
2352 1 -0.592699 -6.33538 -15.2659 -0.592699 -6.33538 -15.2659
1707 1 -1.10971 -5.89917 -16.5097 -1.10971 -5.89917 -16.5097
1732 1 -0.278817 -11.3899 -13.095 -0.278817 -11.3899 -13.095
5891 1 -15.7538 -4.30005 -16.2135 -15.7538 -4.30005 -16.2135
4640 1 -4.39485 -16.7719 -10.5025 -4.39485 17.2419 -10.5025
13964 1 -13.0624 -5.27974 -16.6754 -13.0624 -5.27974 -16.6754
10912 1 -13.0752 -4.12531 -16.3392 20.9385 -4.12531 17.6745
11087 1 -11.4219 -4.94867 -16.6092 -11.4219 -4.94867 17.4045
6792 1 -4.71394 -0.0173796 -7.59932 -38.7277 -0.0173796 -7.59932
14187 1 -9.29845 -5.25753 -16.1358 24.7153 -5.25753 -16.1358
12459 1 -8.03671 -4.03676 -15.9422 -8.03671 29.977 -15.9422
15414 1 -7.07017 -5.12912 -16.1342 26.9435 -5.12912 17.8795
762 1 -5.88956 -5.44937 -16.3635 -5.88956 -5.44937 -16.3635
12090 1 -4.6741 -4.88455 -15.9373 29.3396 -4.88455 18.0764
9145 1 -3.07109 -4.05637 -16.4316 -3.07109 -4.05637 -16.4316
5203 1 -3.89239 -5.15263 -16.6661 -37.9061 -5.15263 -16.6661
12661 1 -5.61408 -1.32199 -1.4209 -5.61408 -1.32199 -1.4209
1783 1 -15.1765 -0.337649 -1.02507 -15.1765 -0.337649 -1.02507
8984 1 -1.68373 -5.16247 -15.7504 -1.68373 -5.16247 -15.7504
6519 1 -0.804377 -4.50472 -16.6991 -0.804377 -4.50472 17.3146
6108 1 -5.56437 -0.174444 -12.0036 -5.56437 -0.174444 -12.0036
9669 1 -16.3112 -3.02438 -16.1967 17.7025 -3.02438 -16.1967
2288 1 -14.345 -4.10711 -16.1572 -14.345 -4.10711 17.8565
1792 1 -0.0819698 -12.7757 -14.2592 -0.0819698 -12.7757 -14.2592
7698 1 -12.1419 -2.93962 -16.239 -12.1419 -2.93962 17.7748
10636 1 -10.7583 -3.96987 -16.2954 23.2554 -3.96987 17.7184
1279 1 -9.44242 -3.94072 -16.5695 -9.44242 -3.94072 -16.5695
1487 1 -9.20067 -3.25018 -15.1962 -9.20067 -3.25018 -15.1962
5081 1 -6.74945 -3.35974 -15.8972 -6.74945 -3.35974 -15.8972
8459 1 -5.9899 -3.20252 -16.8799 -5.9899 -3.20252 -16.8799
9314 1 -1.91501 -3.60926 -15.7075 -1.91501 -3.60926 -15.7075
9411 1 -11.5156 -0.29256 -10.1571 22.4981 -0.29256 -10.1571
2252 1 -0.790116 -3.3508 -17.0043 -0.790116 -3.3508 17.0094
13277 1 -13.7614 -0.111058 -11.3534 20.2523 -0.111058 -11.3534
9620 1 -15.8268 -2.09242 -16.284 18.1869 -2.09242 -16.284
10814 1 -13.8519 -2.9279 -15.5798 20.1618 -2.9279 -15.5798
2826 1 -13.8061 -1.83778 -16.6676 -13.8061 -1.83778 17.3461
5524 1 -11.5796 -1.80756 -15.9615 -11.5796 -1.80756 -15.9615
2906 1 -10.9217 -2.28581 -16.7286 -10.9217 -2.28581 17.2852
64 1 -8.24768 -1.6831 -15.5899 -8.24768 -1.6831 -15.5899
6578 1 -9.74931 -2.07876 -15.6843 -9.74931 -2.07876 18.3294
14550 1 -8.79148 -2.72892 -16.3635 -8.79148 -2.72892 17.6502
4379 1 -11.6891 -16.7823 -5.83773 -11.6891 17.2314 28.176
5974 1 -4.86332 -2.45149 -16.9289 -4.86332 -2.45149 -16.9289
13096 1 -4.77222 -4.16148 -16.6752 -4.77222 -4.16148 -16.6752
2560 1 -3.79332 -2.45201 -16.4689 -3.79332 -2.45201 17.5448
3463 1 -3.61548 -1.47471 -16.6232 -3.61548 -1.47471 17.3905
1047 1 -2.2282 -2.71059 -16.2798 -2.2282 -2.71059 -16.2798
1606 1 -1.10155 -2.47229 -15.6337 -1.10155 -2.47229 -15.6337
2980 1 -1.45258 -0.446588 -15.5874 -1.45258 -0.446588 -15.5874
13845 1 -0.59649 -2.02407 -16.975 -0.59649 -2.02407 -16.975
9149 1 -16.9773 -1.25131 -15.7477 17.0364 -1.25131 -15.7477
15607 1 -14.007 -0.840113 -15.3715 20.0067 -0.840113 18.6422
2701 1 -15.1999 -1.17541 -16.6749 -15.1999 -1.17541 17.3388
12753 1 -13.1844 -0.441472 -16.0311 20.8293 -0.441472 -16.0311
4762 1 -11.8917 -0.768649 -16.4357 -11.8917 -0.768649 -16.4357
8366 1 -16.5039 -10.177 -12.5518 17.5098 -10.177 -12.5518
892 1 -10.4924 -1.25081 -16.622 -10.4924 -1.25081 -16.622
3495 1 -9.75818 -0.655093 -15.5733 -9.75818 -0.655093 18.4405
5239 1 -8.44689 -0.286659 -16.1923 -8.44689 -0.286659 -16.1923
684 1 -7.25455 -1.00765 -16.2384 -7.25455 -1.00765 -16.2384
10086 1 -6.14341 -0.178123 -16.4381 -6.14341 -0.178123 -16.4381
3879 1 -4.70978 -0.682572 -16.6744 -4.70978 -34.6963 17.3393
13560 1 -3.63595 -0.268316 -15.6145 -3.63595 -0.268316 -15.6145
8956 1 -15.8658 -0.3133 -16.9117 18.1479 -0.3133 -16.9117
12294 1 -2.12017 -0.839469 -16.5063 -2.12017 -0.839469 17.5074
953 1 -0.498766 -0.865466 -16.6328 -0.498766 -0.865466 -16.6328
15495 1 -16.9169 -16.8034 -14.4132 17.0968 17.2103 19.6005
7540 1 -15.2852 -16.4344 -15.1956 -15.2852 17.5793 18.8181
10387 1 -12.3882 -16.6543 -15.2468 21.6255 -16.6543 18.7669
661 1 -13.6316 -16.2472 -14.9493 -13.6316 -16.2472 -14.9493
4829 1 -9.52524 -15.5954 -14.9 -9.52524 18.4183 -14.9
5786 1 -11.2039 -16.2777 -15.3323 -11.2039 17.736 -15.3323
7751 1 -9.00929 -16.8454 -15.411 -9.00929 17.1683 18.6027
13461 1 -0.0174824 -13.8202 -0.435297 -0.0174824 20.1935 -0.435297
7950 1 -0.17334 -15.4625 -7.95398 -0.17334 18.5512 26.0597
5235 1 -8.29872 -15.6218 -14.7676 -8.29872 -15.6218 -14.7676
9278 1 -6.1811 -16.2181 -15.4885 -6.1811 -16.2181 -15.4885
4519 1 -4.60574 -16.2254 -15.4405 -4.60574 17.7883 -15.4405
15460 1 -4.3914 -15.838 -14.1303 29.6223 18.1757 19.8834
8641 1 -3.43942 -16.0979 -15.2589 -3.43942 17.9158 -15.2589
4616 1 -0.862851 -15.9071 -15.2387 -0.862851 18.1066 -15.2387
12326 1 -16.0396 -15.6863 -14.934 17.9741 -15.6863 19.0797
12844 1 -16.3223 -15.1762 -13.9637 17.6915 18.8375 -13.9637
3468 1 -11.617 -13.6345 -16.8896 -11.617 -13.6345 17.1241
2114 1 -15.8054 -14.1037 -14.8222 -15.8054 -14.1037 19.1915
13193 1 -12.7364 -14.3676 -15.266 21.2774 19.6461 -15.266
8786 1 -14.0796 -14.58 -15.2569 19.9341 -14.58 -15.2569
921 1 -12.4489 -15.9528 -14.393 -12.4489 -15.9528 -14.393
14619 1 -11.8057 -14.8338 -14.613 22.208 19.1799 -14.613
3418 1 -10.5242 -15.7233 -14.3305 -10.5242 -15.7233 19.6832
12072 1 -9.85325 -14.6538 -14.7496 24.1605 -14.6538 19.2641
15814 1 -7.0366 -15.1292 -15.1789 -7.0366 18.8845 18.8348
1661 1 -5.08105 -14.582 -15.1616 -5.08105 -14.582 -15.1616
10478 1 -3.99184 -14.8733 -14.9929 -3.99184 -14.8733 19.0208
15480 1 -1.4022 -13.3764 -15.2256 -1.4022 20.6373 18.7881
14552 1 -3.14039 -15.0508 -13.9409 -3.14039 18.9629 20.0728
10502 1 -0.725773 -14.1146 -14.7061 33.2879 -14.1146 19.3076
11033 1 -16.541 -13.2346 -14.8378 17.4727 -13.2346 19.1759
6463 1 -12.8833 -13.8543 -14.0893 -12.8833 20.1594 19.9244
312 1 -10.5837 -13.811 -14.8375 -10.5837 -13.811 19.1762
9102 1 -8.10649 -14.4028 -15.0291 -8.10649 -14.4028 -15.0291
3745 1 -7.67834 -13.8199 -14.008 -7.67834 -13.8199 20.0057
1048 1 -6.89978 -13.4516 -14.8038 -6.89978 -13.4516 -14.8038
4030 1 -5.69897 -14.6467 -14.0954 -5.69897 -14.6467 19.9183
7864 1 -5.43831 -13.0875 -14.8431 -5.43831 20.9263 19.1706
910 1 -3.53738 -13.4752 -14.2826 -3.53738 -13.4752 -14.2826
6397 1 -3.1902 -13.4654 -15.6294 -3.1902 20.5483 18.3844
11359 1 -2.44838 -13.9429 -14.5096 -2.44838 -13.9429 19.5041
7800 1 -16.1679 -12.5113 -15.5246 -16.1679 21.5025 18.4892
1603 1 -14.6785 -11.9027 -15.3414 -14.6785 -11.9027 -15.3414
13137 1 -12.9097 -12.9333 -15.9136 21.104 -12.9333 -15.9136
5597 1 -13.6821 -12.7598 -14.501 -13.6821 21.2539 -14.501
14050 1 -11.9553 -12.097 -14.6601 22.0584 21.9167 19.3536
8937 1 -10.8662 -11.2203 -15.1142 23.1475 -11.2203 -15.1142
10853 1 -9.38919 -13.5322 -13.883 -9.38919 -13.5322 -13.883
12208 1 -9.16821 -11.8622 -15.4164 24.8455 -11.8622 18.5973
10048 1 -7.85163 -12.2484 -15.0951 -7.85163 -12.2484 -15.0951
12295 1 -5.9829 -12.0419 -14.6942 -5.9829 -12.0419 19.3195
10137 1 -4.34345 -12.218 -15.0983 -4.34345 -12.218 -15.0983
4665 1 -3.15632 -11.0983 -13.8222 -3.15632 22.9154 -13.8222
10788 1 -2.95579 -12.5439 -14.7627 31.0579 -12.5439 19.251
1241 1 -1.57387 -12.3941 -15.0792 -35.5876 -12.3941 -15.0792
639 1 -16.3632 -11.1787 -15.4741 -16.3632 -11.1787 -15.4741
305 1 -13.9464 -11.1117 -15.7655 -13.9464 -11.1117 -15.7655
4923 1 -15.3558 -10.8014 -14.4264 -15.3558 23.2123 -14.4264
736 1 -13.2737 -11.2741 -14.7704 -13.2737 -11.2741 -14.7704
1145 1 -11.6089 -10.5678 -15.5654 -11.6089 -10.5678 -15.5654
4413 1 -9.75264 -10.9614 -15.0814 -9.75264 23.0523 -15.0814
8072 1 -8.52405 -10.0153 -15.2293 -8.52405 23.9984 18.7844
4980 1 -7.24016 -10.1154 -15.146 -7.24016 -10.1154 -15.146
10664 1 -6.31664 -11.0808 -15.3251 27.6971 -11.0808 18.6886
2128 1 -4.43436 -10.9646 -14.8793 -4.43436 -10.9646 19.1344
11063 1 -2.66475 -9.71977 -15.4356 -2.66475 -9.71977 18.5781
3816 1 -1.70222 -10.7353 -14.923 -1.70222 -10.7353 19.0907
4276 1 -16.6355 -10.1581 -14.9871 -16.6355 23.8556 -14.9871
15695 1 -14.3496 -9.74291 -14.3035 19.6641 24.2708 19.7102
4316 1 -13.9764 -9.4918 -15.5141 -13.9764 24.5219 -15.5141
13987 1 -13.124 -9.83472 -13.8927 20.8897 -9.83472 -13.8927
2832 1 -13.62 -8.27219 -14.448 -13.62 -8.27219 19.5657
704 1 -12.7272 -9.43902 -15.378 -12.7272 -9.43902 -15.378
376 1 -9.86315 -9.35671 -15.027 -9.86315 -9.35671 -15.027
6129 1 -6.13632 -9.99332 -15.5353 -6.13632 -9.99332 18.4784
320 1 -6.52869 -9.58283 -14.0934 -6.52869 -9.58283 -14.0934
3125 1 -4.69097 -9.67373 -15.4397 -4.69097 -9.67373 18.574
1248 1 -2.76473 -9.79313 -14.2908 -2.76473 -9.79313 -14.2908
10615 1 -2.09786 -8.487 -14.5727 -2.09786 -8.487 19.441
7783 1 -15.428 -8.62475 -16.0728 -15.428 25.389 -16.0728
14547 1 -16.0942 -9.16952 -15.1897 17.9195 -9.16952 18.824
13199 1 -15.1611 -8.96109 -14.5172 -15.1611 25.0526 -14.5172
1043 1 -15.2055 -7.07078 -15.4474 18.8082 -7.07078 -15.4474
224 1 -13.468 -6.98481 -15.5578 -13.468 -6.98481 -15.5578
8388 1 -11.8324 -8.53801 -13.7866 -11.8324 -8.53801 -13.7866
702 1 -11.5255 -8.52559 -15.3965 -11.5255 -8.52559 -15.3965
12124 1 -10.4634 -7.59178 -14.636 -10.4634 -7.59178 -14.636
8965 1 -8.80516 -7.78419 -14.9918 25.2086 -7.78419 -14.9918
8721 1 -8.01758 -8.76607 -14.887 -8.01758 -8.76607 -14.887
10134 1 -5.66134 -7.71221 -14.9063 -5.66134 -7.71221 -14.9063
1020 1 -5.83363 -6.95333 -14.0191 -5.83363 -6.95333 -14.0191
11112 1 -4.92962 -9.05129 -14.3202 -4.92962 -9.05129 19.6935
2121 1 -3.90435 -7.37134 -14.9352 -3.90435 -7.37134 -14.9352
11526 1 -3.025 -8.16492 -14.1063 -3.025 -8.16492 19.9074
4062 1 -2.73468 -8.24228 -15.6656 -2.73468 -8.24228 -15.6656
9583 1 -1.02113 -8.26199 -15.4868 -1.02113 -8.26199 -15.4868
1122 1 -7.83715 -3.3237 -0.0697952 -7.83715 -3.3237 -0.0697952
9267 1 -15.8749 -6.15631 -15.8976 18.1388 -6.15631 -15.8976
11614 1 -12.0052 -7.4974 -15.114 22.0085 -7.4974 18.8997
2478 1 -11.2427 -6.85113 -16.536 -11.2427 -6.85113 17.4777
4753 1 -11.6843 -6.50268 -14.8848 -11.6843 -6.50268 -14.8848
10453 1 -10.3561 -5.6792 -14.9466 23.6576 -5.6792 19.0671
9330 1 -8.96712 -6.14844 -14.8443 25.0466 -6.14844 -14.8443
14469 1 -7.84712 -7.77857 -15.456 26.1666 26.2351 -15.456
11415 1 -5.4955 -6.48823 -14.9358 28.5182 -6.48823 19.0779
452 1 -4.71614 -7.31178 -13.8273 -4.71614 -7.31178 -13.8273
350 1 -3.42218 -6.89699 -13.7924 -3.42218 -6.89699 -13.7924
9034 1 -2.13378 -6.32379 -15.4569 -2.13378 -6.32379 -15.4569
3124 1 -13.4971 -4.27892 -15.0979 -13.4971 -4.27892 -15.0979
1511 1 -14.0821 -5.32671 -15.7122 -14.0821 -5.32671 -15.7122
865 1 -12.303 -5.61986 -15.7105 -12.303 -5.61986 -15.7105
10268 1 -11.8165 -4.93459 -14.1565 22.1972 -4.93459 -14.1565
15042 1 -10.7114 -4.34724 -15.3209 23.3023 -4.34724 18.6928
3885 1 -8.91801 -4.89255 -14.9802 -8.91801 -4.89255 19.0335
12771 1 -6.52696 -5.91924 -14.2855 -6.52696 28.0945 -14.2855
8515 1 -8.16716 -4.26832 -14.7124 25.8466 -4.26832 -14.7124
14071 1 -6.86019 -4.11783 -14.5517 -6.86019 29.8959 -14.5517
1741 1 -5.66791 -5.21597 -15.154 -5.66791 -39.2297 -15.154
11257 1 -3.66906 -4.32352 -14.5845 -3.66906 -4.32352 19.4292
2075 1 -4.1904 -5.79431 -15.1631 -4.1904 -5.79431 18.8506
11231 1 -1.33226 -4.19316 -14.6306 -1.33226 -4.19316 19.3831
12024 1 -2.94885 -5.03537 -15.4784 -2.94885 -5.03537 18.5353
15544 1 -0.158763 -5.12983 -15.1776 -0.158763 -5.12983 18.8362
1570 1 -16.2392 -3.93884 -14.441 17.7746 -3.93884 -14.441
10583 1 -15.1062 -2.5284 -15.4936 18.9076 -2.5284 -15.4936
80 1 -14.6012 -4.03333 -15.0528 -14.6012 -4.03333 -15.0528
13268 1 -12.0254 -2.44047 -15.0679 -12.0254 -2.44047 -15.0679
5332 1 -12.2525 -3.91993 -15.4834 -12.2525 -3.91993 18.5303
84 1 -11.4458 -3.43578 -14.3706 -11.4458 -3.43578 -14.3706
9624 1 -10.2407 -3.46436 -14.776 23.773 -3.46436 -14.776
7782 1 -6.01008 -4.23431 -15.8988 -6.01008 -4.23431 18.1149
838 1 -6.34077 -2.82432 -14.6902 -6.34077 -2.82432 -14.6902
3078 1 -4.53909 -2.95089 -15.6238 -4.53909 -2.95089 -15.6238
1679 1 -5.13032 -4.03291 -15.0393 -5.13032 -4.03291 -15.0393
2026 1 -3.07904 -3.30759 -15.4006 -3.07904 -37.3213 -15.4006
5596 1 -1.2216 -3.08647 -14.3754 -1.2216 30.9272 -14.3754
6505 1 -0.82424 -4.04874 -15.5211 -0.82424 -4.04874 -15.5211
11169 1 -16.2562 -1.60117 -14.8943 17.7575 -1.60117 19.1194
9079 1 -15.4701 -3.07969 -14.0333 18.5436 -3.07969 -14.0333
15100 1 -14.3003 -1.48743 -14.2038 19.7134 -1.48743 19.8099
3051 1 -13.499 -3.28224 -14.6222 -13.499 -3.28224 19.3916
1072 1 -13.1942 -2.08782 -15.5964 -13.1942 -2.08782 -15.5964
2291 1 -10.6767 -2.07694 -15.2805 -10.6767 -2.07694 18.7332
4849 1 -9.67012 -2.42683 -14.3488 -9.67012 31.5869 19.6649
7006 1 -9.21967 -1.54192 -14.9413 -9.21967 -1.54192 19.0724
16358 1 -7.53176 -3.16248 -15.0332 26.482 -3.16248 18.9806
5352 1 -6.36146 -1.70745 -15.8369 -6.36146 -1.70745 -15.8369
5220 1 -6.51836 -1.46305 -14.5077 -6.51836 -1.46305 -14.5077
122 1 -4.86648 -1.62979 -15.4709 -4.86648 -1.62979 -15.4709
7102 1 -3.85586 -2.11157 -13.6658 -3.85586 31.9021 20.3479
3835 1 -3.74165 -1.80496 -15.2561 -3.74165 -1.80496 18.7576
8063 1 -2.55361 -2.16063 -15.0886 -2.55361 -2.16063 18.9251
1848 1 -8.5427 -5.85675 -16.8687 -8.5427 -5.85675 -16.8687
7942 1 -15.8468 -1.94714 -0.0146265 -15.8468 32.0666 -0.0146265
1283 1 -0.173909 -16.0349 -11.6395 -0.173909 -16.0349 -11.6395
14786 1 -12.6552 -0.835714 -15.0803 21.3585 -0.835714 18.9335
2191 1 -9.74528 -0.793325 -14.3083 -9.74528 -0.793325 19.7055
15471 1 -11.3612 -1.53594 -14.6529 22.6525 -1.53594 19.3608
14727 1 -11.1966 -0.533784 -15.5314 -11.1966 -0.533784 -15.5314
14411 1 -7.4076 -0.180464 -15.1694 -7.4076 -0.180464 18.8444
7510 1 -5.99237 -0.391466 -14.9916 -5.99237 -0.391466 19.0221
7908 1 -2.52212 -0.860143 -14.5039 -2.52212 -0.860143 19.5099
11409 1 -0.86981 -0.578019 -14.6892 -0.86981 -0.578019 19.3245
7143 1 -1.14006 -1.16799 -1.4528 -1.14006 -1.16799 -1.4528
4794 1 -15.7685 -16.1003 -13.8106 -15.7685 17.9134 -13.8106
4087 1 -16.1633 -15.4733 -12.6598 -16.1633 18.5404 -12.6598
2939 1 -13.4457 -16.1651 -13.5859 -13.4457 -16.1651 20.4278
9552 1 -12.2137 -16.7654 -13.1007 21.8 -16.7654 -13.1007
1739 1 -10.9313 -15.7878 -12.9376 -10.9313 -15.7878 -12.9376
7091 1 -0.179265 -1.89681 -1.11655 -0.179265 32.1169 -1.11655
7613 1 -8.74993 -16.3734 -13.1557 -8.74993 17.6403 20.858
5518 1 -7.1684 -16.7105 -14.1427 -7.1684 17.3032 -14.1427
15998 1 -5.35256 -16.6358 -13.246 -5.35256 -16.6358 20.7677
16084 1 -2.80622 -16.0637 -13.9116 -2.80622 17.95 20.1021
1229 1 -1.67147 -16.8891 -14.4708 -1.67147 -16.8891 -14.4708
5397 1 -0.803278 -15.6876 -13.5822 -0.803278 18.3261 -13.5822
8445 1 -0.810542 -16.4054 -12.3864 -0.810542 -16.4054 -12.3864
245 1 -11.1014 -8.32012 -16.6608 -11.1014 -8.32012 -16.6608
8535 1 -14.8876 -15.0534 -14.1381 -14.8876 -15.0534 -14.1381
1514 1 -15.0957 -15.0322 -12.9046 -15.0957 -15.0322 -12.9046
6866 1 -13.3718 -14.4547 -13.1674 -13.3718 19.5591 20.8464
11940 1 -11.8193 -14.2088 -13.7568 22.1944 -14.2088 20.2569
901 1 -12.4757 -15.403 -13.333 -12.4757 -15.403 -13.333
10862 1 -10.3803 -14.0262 -13.2466 23.6334 -14.0262 20.7671
1193 1 -9.56027 -14.9715 -13.2053 -9.56027 -14.9715 -13.2053
82 1 -8.82577 -14.3952 -14.3279 -8.82577 -14.3952 -14.3279
7688 1 -8.42207 -15.5433 -13.7003 -8.42207 -15.5433 20.3135
10535 1 -7.00431 -14.7001 -13.534 27.0094 -14.7001 -13.534
3417 1 -6.14009 -15.7872 -13.621 -6.14009 -15.7872 20.3927
11914 1 -4.72722 -14.9929 -13.0148 -4.72722 -14.9929 20.9989
804 1 -2.08944 -15.5655 -13.1298 -2.08944 -15.5655 -13.1298
10087 1 -1.85967 -15.5194 -14.3797 -1.85967 -15.5194 -14.3797
9239 1 -15.5644 -13.5398 -13.4218 18.4493 20.474 -13.4218
8453 1 -14.6607 -13.2497 -15.0656 19.353 -13.2497 -15.0656
10181 1 -14.6002 -13.3486 -12.5302 19.4135 -13.3486 -12.5302
16266 1 -14.4438 -13.8992 -13.6558 19.57 20.1145 -13.6558
2238 1 -13.1348 -12.9364 -12.9133 -13.1348 -12.9364 21.1004
2868 1 -11.7208 -13.328 -14.4635 -11.7208 -13.328 19.5502
1663 1 -9.55722 -12.2836 -13.3532 -9.55722 -12.2836 -13.3532
3070 1 -8.16746 -13.4764 -12.8331 -8.16746 -13.4764 21.1806
1339 1 -6.305 -13.3147 -13.8856 -6.305 -13.3147 -13.8856
12550 1 -4.85806 -13.8108 -13.5041 -4.85806 -13.8108 -13.5041
5291 1 -3.47853 -13.5775 -12.9076 -3.47853 20.4363 -12.9076
10121 1 -2.03295 -13.7869 -13.2925 -2.03295 -13.7869 -13.2925
8889 1 -1.51437 -12.8447 -13.7699 -1.51437 -12.8447 -13.7699
4680 1 -0.542283 -13.7225 -13.711 -0.542283 20.2912 -13.711
7695 1 -15.4892 -12.1773 -14.195 -15.4892 21.8364 19.8188
5502 1 -16.5286 -11.443 -13.4594 -16.5286 22.5708 -13.4594
12609 1 -14.7872 -11.7785 -12.8556 19.2266 22.2352 -12.8556
10207 1 -14.1404 -11.6798 -14.0521 19.8733 -11.6798 -14.0521
273 1 -11.5953 -11.6859 -13.2123 -11.5953 -11.6859 -13.2123
5086 1 -12.5603 -12.4652 -13.6304 -12.5603 21.5485 20.3833
12886 1 -10.5094 -12.6333 -14.0564 -10.5094 21.3804 -14.0564
10741 1 -8.5403 -12.0978 -14.1054 25.4734 -12.0978 -14.1054
6512 1 -7.23898 -12.5916 -14.04 -7.23898 21.4221 19.9737
602 1 -5.71766 -11.0257 -12.9996 -5.71766 -11.0257 -12.9996
11234 1 -4.22062 -12.5238 -13.5925 -4.22062 -12.5238 20.4212
2490 1 -5.72564 -12.1353 -13.6297 -5.72564 -12.1353 20.384
12783 1 -2.71617 -12.3844 -13.5629 -2.71617 21.6293 -13.5629
7166 1 -1.59875 -11.4157 -13.7044 -35.6125 22.598 20.3093
1763 1 -0.453336 -12.5953 -13.1618 -0.453336 -12.5953 -13.1618
6853 1 -15.7957 -10.5096 -13.2518 -15.7957 23.5041 20.7619
256 1 -14.5844 -10.317 -13.0137 -14.5844 -10.317 -13.0137
8527 1 -13.7771 -10.6989 -13.6176 20.2366 -10.6989 -13.6176
8583 1 -12.0883 -10.3846 -13.9706 -12.0883 -10.3846 -13.9706
11950 1 -10.6459 -11.3803 -13.9521 23.3678 -11.3803 20.0617
1798 1 -9.51445 -10.6214 -12.7097 -9.51445 -10.6214 -12.7097
3645 1 -9.61925 -10.1682 -14.0625 -9.61925 -10.1682 19.9512
13343 1 -8.10523 -10.6487 -14.2291 -8.10523 23.365 -14.2291
8967 1 -8.3693 -11.0533 -13.14 25.6444 -11.0533 -13.14
3547 1 -7.16719 -10.8659 -13.2865 -7.16719 -10.8659 20.7272
516 1 -4.15675 -10.1248 -13.8594 -4.15675 -10.1248 -13.8594
16370 1 -5.58816 -10.4157 -14.4824 -5.58816 23.598 19.5313
839 1 -4.69403 -11.6 -12.3937 -4.69403 -11.6 -12.3937
10240 1 -2.09772 -10.5557 -13.14 -2.09772 -10.5557 -13.14
8294 1 -0.693361 -11.0724 -14.2753 -0.693361 -11.0724 -14.2753
6230 1 -1.14091 -9.5505 -14.2891 -1.14091 -9.5505 19.7246
4692 1 -16.8272 -10.2049 -13.9304 -16.8272 -10.2049 -13.9304
1719 1 -16.0587 -8.98405 -13.2306 -16.0587 -8.98405 -13.2306
9831 1 -14.283 -9.18921 -12.9157 19.7308 -9.18921 -12.9157
10385 1 -12.452 -9.68121 -12.6545 21.5617 -9.68121 -12.6545
4269 1 -11.2753 -9.47449 -14.3466 -11.2753 -9.47449 -14.3466
845 1 -11.2535 -8.83484 -13.0233 -11.2535 -8.83484 -13.0233
2569 1 -10.245 -10.0271 -13.0391 -10.245 -10.0271 20.9746
9906 1 -9.84517 -9.105 -13.7853 -9.84517 -9.105 -13.7853
15986 1 -9.17769 -9.56559 -12.4015 -9.17769 -9.56559 21.6122
12785 1 -8.57442 -9.28981 -13.9303 -8.57442 -9.28981 -13.9303
5116 1 -4.99981 -9.60939 -13.3401 -4.99981 -9.60939 -13.3401
1831 1 -3.21344 -10.26 -13.108 -3.21344 -10.26 -13.108
8657 1 -3.67462 -9.13605 -14.5717 -3.67462 -9.13605 -14.5717
13768 1 -0.67397 -9.45064 -12.8269 -0.67397 24.5631 -12.8269
12818 1 -16.3936 -7.68399 -13.8742 17.6201 -7.68399 -13.8742
2368 1 -14.9177 -7.42629 -13.7875 -14.9177 -7.42629 20.2262
7447 1 -13.1253 -8.78731 -13.6701 -13.1253 -8.78731 20.3436
2381 1 -11.4993 -7.70234 -12.9384 -11.4993 -7.70234 21.0753
2243 1 -9.81468 -8.33324 -13.0861 -9.81468 -8.33324 20.9276
2163 1 -9.65196 -6.89913 -14.2005 -9.65196 -6.89913 19.8132
14117 1 -8.57807 -7.75384 -13.6309 -8.57807 -7.75384 -13.6309
8384 1 -7.1703 -7.82027 -14.1058 -7.1703 -7.82027 -14.1058
13515 1 -6.25632 -7.92587 -12.9053 27.7574 -7.92587 -12.9053
9939 1 -4.76986 -8.16363 -13.1361 -4.76986 -8.16363 -13.1361
4474 1 -3.90518 -8.94217 -13.1574 -3.90518 25.0715 -13.1574
4941 1 -2.52859 -7.37082 -13.2541 -2.52859 26.6429 -13.2541
2454 1 -1.03314 -7.91377 -13.6234 -1.03314 -7.91377 -13.6234
12283 1 -1.23873 -7.08026 -12.7464 -1.23873 -7.08026 21.2673
3649 1 -15.753 -6.32479 -14.291 -15.753 -6.32479 -14.291
12175 1 -16.5854 -6.78497 -13.4762 17.4283 -6.78497 20.5376
11955 1 -14.51 -6.11325 -14.5907 -14.51 -6.11325 19.423
6725 1 -13.4023 -6.78363 -14.3912 -13.4023 -6.78363 19.6226
1710 1 -13.3521 -5.99218 -13.1489 -13.3521 -5.99218 -13.1489
10399 1 -12.1702 -6.09801 -13.3972 21.8435 -6.09801 -13.3972
763 1 -10.7195 -6.77958 -13.9179 -10.7195 -6.77958 -13.9179
6141 1 -8.89622 -7.33713 -12.6091 -8.89622 26.6766 21.4046
5168 1 -8.91138 -6.14941 -13.226 -8.91138 -6.14941 -13.226
12043 1 -7.57482 -6.55698 -14.0651 -7.57482 -6.55698 19.9486
12149 1 -7.87668 -6.02306 -12.9939 -7.87668 -6.02306 21.0198
13514 1 -7.15003 -7.00583 -12.9 -7.15003 -7.00583 -12.9
10354 1 -5.44348 -6.59156 -12.5245 28.5702 -6.59156 -12.5245
12742 1 -4.11298 -6.39745 -12.7726 -4.11298 27.6163 -12.7726
1677 1 -3.40929 -5.57208 -12.9564 -3.40929 -5.57208 -12.9564
9790 1 -1.69819 -5.598 -14.6206 -1.69819 -5.598 -14.6206
6378 1 -2.50221 -6.15593 -13.5558 -2.50221 -6.15593 20.4579
10683 1 -0.999043 -6.79561 -14.36 -0.999043 -6.79561 19.6537
15775 1 -15.5398 -4.78356 -13.7279 18.4739 -4.78356 20.2858
4388 1 -16.7444 -0.908656 -16.7014 -16.7444 -0.908656 -16.7014
9666 1 -14.6552 -5.62661 -13.3086 19.3585 -5.62661 -13.3086
2735 1 -13.0293 -5.51655 -14.5794 -13.0293 -5.51655 -14.5794
12483 1 -11.1404 -5.82298 -12.9222 -11.1404 -5.82298 -12.9222
11190 1 -10.0727 -5.85654 -13.3572 -10.0727 -5.85654 20.6565
1336 1 -10.5491 -4.36941 -13.2437 -10.5491 -4.36941 -13.2437
7404 1 -8.62389 -4.37552 -13.1133 -8.62389 -4.37552 20.9004
9539 1 -7.31791 -5.11316 -13.4536 -7.31791 -5.11316 -13.4536
11751 1 -5.36865 -5.75914 -13.8154 28.6451 -5.75914 20.1984
11915 1 -4.07825 -5.52451 -13.7498 -4.07825 -5.52451 20.264
3114 1 -3.50209 -4.36326 -13.2578 -3.50209 -4.36326 -13.2578
14414 1 -2.3365 -5.12265 -12.9674 -2.3365 -5.12265 21.0463
6601 1 -1.28217 -5.32712 -13.2987 -1.28217 -5.32712 20.715
5723 1 -16.8982 -7.68249 -16.8039 -16.8982 26.3312 -16.8039
5076 1 -15.8308 -2.86964 -13.026 -15.8308 31.1441 -13.026
3574 1 -15.124 -3.89799 -12.8575 -15.124 -3.89799 21.1562
7197 1 -14.2144 -3.7355 -13.7756 -14.2144 -3.7355 20.2381
4904 1 -12.368 -3.82104 -13.8633 -12.368 -3.82104 -13.8633
2498 1 -12.0667 -4.65942 -12.8412 -12.0667 -4.65942 -12.8412
622 1 -10.1019 -3.41955 -13.0317 -10.1019 -3.41955 -13.0317
10506 1 -9.47778 -4.39529 -14.0848 24.5359 -4.39529 19.9289
9221 1 -7.9297 -3.55459 -13.6783 -7.9297 -3.55459 -13.6783
10130 1 -6.43299 -4.26382 -12.9161 27.5807 -4.26382 -12.9161
15523 1 -6.3136 -2.92462 -13.0529 -6.3136 -2.92462 20.9608
8390 1 -5.60706 -4.48125 -13.6532 -5.60706 -4.48125 -13.6532
8961 1 -5.31933 -2.34284 -14.3268 -5.31933 -2.34284 -14.3268
3095 1 -4.12234 -3.52142 -14.1185 -4.12234 -3.52142 19.8952
4386 1 -1.97378 -3.92937 -12.5468 -1.97378 -3.92937 -12.5468
12405 1 -0.0807116 -3.68887 -13.2309 -0.0807116 -3.68887 -13.2309
2366 1 -15.6451 -1.40419 -12.6411 -15.6451 -1.40419 21.3726
14447 1 -14.1749 -2.60956 -14.1699 19.8388 -2.60956 19.8438
8736 1 -13.7436 -2.05815 -13.379 20.2701 -2.05815 -13.379
1527 1 -12.4108 -1.77908 -13.8721 -12.4108 -1.77908 -13.8721
11740 1 -10.8495 -2.61355 -13.8695 23.1642 -2.61355 20.1442