ITEM: TIMESTEP
1500
ITEM: NUMBER OF ATOMS
16384
ITEM: BOX BOUNDS pp pp pp
-1.7006855707231768e+01 1.7006855707231768e+01
-1.7006855707231768e+01 1.7006855707231768e+01
-1.7006855707231768e+01 1.7006855707231768e+01
ITEM: ATOMS id type x y z xu yu zu
7216 1 -16.423 -15.7791 -16.2326 -16.423 18.2346 17.7811
10534 1 -15.3393 -16.8679 -16.7782 18.6744 -16.8679 17.2355
6256 1 -14.4259 -16.3451 -15.9207 -14.4259 17.6686 18.093
8923 1 -13.0833 -16.7198 -15.8707 -13.0833 -16.7198 -15.8707
6676 1 -16.7497 -0.366029 -9.55604 -16.7497 -0.366029 24.4577
4438 1 -11.1736 -16.7221 -16.139 -11.1736 17.2916 -16.139
9994 1 -10.4914 -15.3379 -15.8164 23.5223 -15.3379 -15.8164
1281 1 -9.27502 -15.8688 -16.2676 -9.27502 -15.8688 -16.2676
7543 1 -13.8366 -0.208271 -1.67192 -13.8366 -0.208271 -1.67192
7718 1 -6.63806 -15.9466 -16.1335 -6.63806 18.0671 17.8803
11359 1 -4.07856 -15.4344 -16.1763 -4.07856 -15.4344 17.8374
7428 1 -5.86845 -16.7042 -16.4592 -5.86845 17.3096 17.5546
15558 1 -2.77677 -15.9578 -15.9118 -2.77677 18.0559 18.1019
1661 1 -1.67856 -15.8794 -16.3348 -1.67856 -15.8794 -16.3348
7998 1 -0.4809 -0.0909553 -3.83285 -0.4809 -0.0909553 -3.83285
3061 1 -15.9354 -13.8462 -16.4426 -15.9354 -13.8462 17.5711
11628 1 -14.6971 -14.8759 -15.6763 19.3166 -14.8759 18.3374
6866 1 -13.0952 -14.6941 -15.2764 -13.0952 19.3196 18.7373
2939 1 -13.321 -15.4755 -16.6706 -13.321 -15.4755 17.3431
13995 1 -12.2256 -14.6822 -16.2539 -12.2256 19.3315 -16.2539
2162 1 -8.26296 -15.0057 -15.7875 -8.26296 -15.0057 18.2262
3010 1 -7.25875 -14.9017 -16.4349 -7.25875 -14.9017 17.5788
14222 1 -15.0824 -0.298298 -1.49134 18.9313 -0.298298 -1.49134
7864 1 -5.73771 -15.0495 -16.0225 -5.73771 18.9642 17.9912
3790 1 -4.68633 -0.18824 -10.2435 -4.68633 -0.18824 23.7702
15863 1 -2.89976 -14.3964 -15.9577 -2.89976 19.6173 18.056
2376 1 -0.163072 -15.2667 -16.8692 -0.163072 -15.2667 17.1446
14337 1 -0.437608 -14.6782 -15.666 -0.437608 19.3355 18.3477
10387 1 -14.7944 -13.2307 -16.3496 19.2193 -13.2307 17.6641
1414 1 -13.317 -13.4524 -16.0926 -13.317 -13.4524 -16.0926
2933 1 -12.1466 -13.6338 -15.4735 -12.1466 -13.6338 18.5403
12208 1 -10.1527 -13.8823 -15.999 23.861 -13.8823 18.0147
3899 1 -8.18485 -13.8698 -16.0015 -8.18485 -13.8698 18.0122
312 1 -7.10556 -13.5103 -15.3444 -7.10556 -13.5103 18.6693
1795 1 -5.55682 -13.08 -16.1452 -5.55682 -13.08 -16.1452
13970 1 -4.83588 -14.2662 -15.7094 -4.83588 -14.2662 -15.7094
10752 1 -3.5381 -13.0088 -16.4371 -3.5381 -13.0088 17.5766
12056 1 -4.48613 -13.5915 -16.5886 -4.48613 20.4222 17.4251
1852 1 -1.70795 -13.3392 -16.3672 -1.70795 -13.3392 -16.3672
10478 1 -0.514583 -12.7553 -16.3258 -0.514583 -12.7553 17.6879
9992 1 -1.26085 -14.5417 -16.6292 32.7529 -14.5417 -16.6292
9359 1 -15.4948 -11.1234 -17.0137 18.5189 -11.1234 -17.0137
4910 1 -16.4173 -12.5686 -15.9084 -16.4173 -12.5686 -15.9084
11940 1 -14.8631 -12.0827 -16.4888 19.1506 -12.0827 17.5249
8635 1 -13.9292 -11.6988 -16.6423 20.0845 -11.6988 -16.6423
2238 1 -12.446 -12.1553 -15.3931 -12.446 -12.1553 18.6206
6272 1 -11.0503 -13.0442 -16.5392 -11.0503 20.9695 17.4746
5478 1 -9.19708 -12.6347 -16.8339 -9.19708 21.379 -16.8339
3531 1 -10.3765 -11.5785 -15.5835 -10.3765 -11.5785 18.4302
3604 1 -7.95697 -12.7178 -15.502 -7.95697 -12.7178 18.5117
13712 1 -1.4914 -0.713485 -2.53804 -1.4914 -0.713485 -2.53804
9592 1 -7.26493 -11.1723 -16.3888 -7.26493 -11.1723 -16.3888
6634 1 -1.93254 -16.8531 -3.05049 -1.93254 17.1607 -3.05049
11401 1 -4.03052 -11.6658 -16.1494 -4.03052 -11.6658 17.8643
120 1 -16.9004 -8.14857 -5.25801 -16.9004 -8.14857 -5.25801
2882 1 -1.38567 -12.236 -16.5707 -1.38567 -12.236 17.443
462 1 -10.7462 -16.547 -0.159272 -10.7462 -16.547 -0.159272
10276 1 -15.8358 -10.1177 -16.0742 18.1779 -10.1177 -16.0742
2569 1 -14.5744 -10.7273 -16.5008 -14.5744 -10.7273 17.5129
2868 1 -13.0762 -10.8043 -15.925 -13.0762 -10.8043 18.0887
1228 1 -13.5992 -9.24837 -16.5871 -13.5992 -9.24837 -16.5871
1306 1 -12.3431 -11.3624 -16.9804 -12.3431 -11.3624 -16.9804
8774 1 -9.96821 -10.5801 -16.8655 -9.96821 -10.5801 -16.8655
13199 1 -11.4863 -11.44 -16.1126 -11.4863 22.5737 -16.1126
4023 1 -9.45499 -11.1413 -15.9539 -9.45499 -11.1413 18.0599
15352 1 -7.87857 -9.93352 -16.7523 26.1351 -9.93352 17.2614
271 1 -5.10481 -11.1582 -15.9095 -5.10481 -11.1582 -15.9095
6129 1 -5.77355 -9.19151 -16.5225 -5.77355 -9.19151 17.4912
11063 1 -3.46352 -10.6022 -16.2153 -3.46352 -10.6022 17.7984
9355 1 -2.43161 -10.5951 -16.1057 -2.43161 -10.5951 17.908
14498 1 -0.864953 -11.1507 -15.9508 -0.864953 -11.1507 18.0629
192 1 -2.76169 -16.9832 -4.78299 -2.76169 -16.9832 -4.78299
1378 1 -14.7923 -9.34326 -15.8714 -14.7923 -9.34326 -15.8714
1278 1 -12.3659 -10.1744 -16.3109 -12.3659 -10.1744 -16.3109
7013 1 -12.3762 -8.57386 -16.4551 -12.3762 25.4399 17.5586
6218 1 -10.5163 -9.33772 -16.3565 -10.5163 24.676 17.6572
2449 1 -9.23033 -8.85722 -15.8906 -9.23033 -8.85722 18.1231
3547 1 -6.63452 -8.63793 -16.6099 -6.63452 -8.63793 17.4038
13515 1 -6.51442 -8.54119 -15.4299 27.4993 -8.54119 -15.4299
3816 1 -4.35123 -9.72268 -16.4822 -4.35123 -9.72268 17.5315
10615 1 -3.37239 -8.91075 -16.1259 -3.37239 -8.91075 17.8878
4474 1 -2.7518 -9.44268 -15.106 -2.7518 24.571 -15.106
7298 1 -1.57825 -16.9812 -14.6222 -1.57825 17.0326 19.3915
8581 1 -0.431526 -10.031 -16.3123 -0.431526 -10.031 -16.3123
15554 1 -1.09458 -0.112199 -0.340405 -1.09458 -0.112199 -0.340405
1955 1 -14.5987 -7.60106 -16.909 -14.5987 -7.60106 -16.909
9509 1 -13.2577 -7.82672 -16.3456 -13.2577 -7.82672 -16.3456
1070 1 -12.2014 -7.10852 -15.7408 -12.2014 -7.10852 -15.7408
3592 1 -10.8209 -8.25681 -16.8882 -10.8209 -8.25681 17.1255
9539 1 -7.84262 -8.61281 -16.2105 -7.84262 -8.61281 -16.2105
3885 1 -9.04194 -7.81254 -16.0933 -9.04194 -7.81254 17.9204
5350 1 -0.0795834 -5.0352 -5.73566 -0.0795834 -5.0352 -5.73566
1321 1 -5.332 -8.36622 -15.1468 -5.332 -8.36622 -15.1468
6170 1 -4.90979 -7.23431 -16.761 -4.90979 -7.23431 17.2527
2393 1 -4.22552 -8.16613 -16.3069 -4.22552 -8.16613 -16.3069
3995 1 -2.60309 -8.14445 -16.8442 -2.60309 -8.14445 17.1695
1612 1 -1.44096 -7.63485 -16.2156 -1.44096 -7.63485 -16.2156
12118 1 -6.69107 -14.1997 -16.8831 -6.69107 -14.1997 -16.8831
898 1 -15.8883 -7.10294 -16.0168 -15.8883 -7.10294 -16.0168
9267 1 -14.8894 -6.55832 -15.8369 19.1244 -6.55832 -15.8369
10912 1 -12.4261 -6.38251 -16.5443 21.5876 -6.38251 17.4694
367 1 -10.1706 -6.73134 -16.8425 -10.1706 -6.73134 -16.8425
704 1 -10.8842 -6.63249 -15.6855 -10.8842 -6.63249 -15.6855
9281 1 -9.22417 -5.93706 -16.5366 24.7895 -5.93706 -16.5366
10453 1 -10.1331 -5.57191 -15.6668 23.8806 -5.57191 18.3469
11571 1 -7.44797 -7.23148 -16.8825 -7.44797 -7.23148 17.1312
9862 1 -16.8416 -1.19634 -8.13657 17.1721 -1.19634 -8.13657
12459 1 -6.80445 -7.05679 -15.6228 -6.80445 26.9569 -15.6228
461 1 -5.64129 -6.64557 -15.9066 -5.64129 -6.64557 -15.9066
9916 1 -3.30952 -7.14579 -15.9723 -3.30952 -7.14579 -15.9723
7878 1 -4.28156 -6.36827 -15.3281 -4.28156 27.6454 18.6856
7029 1 -2.59926 -5.74569 -15.5203 -2.59926 28.268 18.4934
15213 1 -1.6889 -6.5959 -15.5629 -1.6889 27.4178 18.4508
13146 1 -15.2497 -5.2358 -16.0143 18.764 -5.2358 -16.0143
3857 1 -16.3171 -4.38321 -16.5033 -16.3171 -4.38321 17.5104
9329 1 -0.18997 -9.82621 -9.70426 -0.18997 -9.82621 -9.70426
4340 1 -6.83675 -16.9583 -6.12154 -6.83675 17.0555 -6.12154
5221 1 -12.6513 -4.5935 -15.6918 -12.6513 29.4202 18.3219
528 1 -14.1121 -5.45656 -15.7177 -14.1121 -5.45656 -15.7177
14117 1 -11.2475 -5.47118 -16.2585 -11.2475 -5.47118 -16.2585
13232 1 -10.7715 -3.69459 -15.7742 23.2422 -3.69459 -15.7742
13514 1 -8.93848 -4.91076 -15.4312 -8.93848 -4.91076 -15.4312
5974 1 -7.65922 -4.08492 -15.9806 -7.65922 -4.08492 -15.9806
8721 1 -6.65303 -5.95266 -16.3594 -6.65303 -5.95266 -16.3594
2169 1 -6.55242 -4.30554 -16.6266 -6.55242 -4.30554 17.3871
7149 1 -4.36357 -4.52494 -16.7509 -4.36357 -4.52494 17.2628
3977 1 -5.59998 -5.36593 -16.1988 -5.59998 -5.36593 17.815
1666 1 -3.95829 -5.3126 -15.755 -3.95829 -5.3126 -15.755
5089 1 -2.38741 -4.91212 -16.4333 -2.38741 -4.91212 -16.4333
5332 1 -12.0399 -3.42932 -16.1803 -12.0399 -3.42932 17.8334
6519 1 -1.28779 -4.35214 -16.4275 -1.28779 -4.35214 17.5862
2288 1 -14.5238 -4.24106 -15.8601 -14.5238 -4.24106 18.1536
6725 1 -13.518 -3.73273 -16.3458 -13.518 -3.73273 17.6679
11830 1 -11.5228 -4.38575 -15.386 22.4909 -4.38575 18.6277
3574 1 -11.2815 -2.8923 -15.2184 -11.2815 -2.8923 18.7953
3855 1 -10.5632 -3.03846 -16.9742 -10.5632 -3.03846 17.0395
5081 1 -8.71855 -3.67179 -16.6455 -8.71855 -3.67179 -16.6455
2560 1 -5.33921 -3.3821 -16.9205 -5.33921 -3.3821 17.0932
12301 1 -6.77918 -3.11425 -16.4177 -6.77918 -3.11425 17.5961
3839 1 -3.2641 -2.77003 -16.5807 -3.2641 -2.77003 17.433
14476 1 -2.15414 -2.85037 -16.8479 31.8596 -2.85037 17.1658
471 1 -2.6571 -0.28246 -9.53642 -2.6571 -0.28246 -9.53642
9410 1 -16.9567 -2.7541 -16.3966 17.057 -2.7541 -16.3966
16350 1 -16.3761 -1.11437 -16.224 17.6376 -1.11437 17.7897
233 1 -14.665 -2.90903 -16.3318 -14.665 -2.90903 -16.3318
15042 1 -12.9491 -2.12793 -16.5969 21.0646 -2.12793 17.4168
570 1 -11.5531 -2.46985 -16.2919 -11.5531 -2.46985 -16.2919
9624 1 -9.56364 -2.88046 -15.912 24.4501 -2.88046 -15.912
4409 1 -10.0775 -1.45704 -16.9856 -10.0775 -1.45704 -16.9856
1279 1 -8.53227 -2.33043 -16.5146 -8.53227 -2.33043 -16.5146
2191 1 -6.97991 -1.32885 -16.613 -6.97991 -1.32885 17.4007
6605 1 -4.30495 -2.04927 -16.3717 -4.30495 -2.04927 17.642
7492 1 -5.91166 -2.30253 -16.121 -5.91166 -2.30253 17.8927
476 1 -3.09295 -2.35885 -15.3415 -3.09295 -2.35885 -15.3415
4790 1 -1.84913 -2.2343 -16.0704 -1.84913 -2.2343 -16.0704
2701 1 -15.0758 -1.49421 -16.314 -15.0758 -1.49421 17.6997
2366 1 -13.8568 -1.19545 -16.6494 -13.8568 -1.19545 17.3643
5524 1 -13.2336 -0.10911 -15.5352 -13.2336 -0.10911 -15.5352
1769 1 -12.1568 -0.770152 -16.7705 -12.1568 -0.770152 -16.7705
5131 1 -11.0632 -1.5708 -16.661 -11.0632 -1.5708 -16.661
11317 1 -11.2424 -0.301106 -16.2057 22.7713 -0.301106 17.808
292 1 -8.30264 -16.7456 -13.9904 -8.30264 -16.7456 -13.9904
5665 1 -9.61536 -1.47318 -15.4688 -9.61536 -1.47318 -15.4688
10257 1 -15.3546 -10.4471 -0.294522 18.6591 -10.4471 -34.3082
15471 1 -7.70224 -0.88171 -15.819 26.3115 -0.88171 18.1947
10781 1 -5.35044 -1.22733 -16.929 -5.35044 -1.22733 17.0847
6799 1 -3.57623 -0.624987 -16.5205 -3.57623 -0.624987 17.4932
478 1 -2.84919 -1.86981 -16.8352 -2.84919 -35.8835 -16.8352
12294 1 -2.22607 -0.558962 -16.274 -2.22607 -0.558962 17.7397
1472 1 -0.769192 -0.905682 -15.6594 -0.769192 -0.905682 -15.6594
4794 1 -15.609 -16.6622 -15.4188 -15.609 17.3515 -15.4188
7981 1 -14.975 -15.5717 -14.4451 -14.975 18.442 19.5686
1625 1 -13.7 -16.0263 -14.3839 -13.7 -16.0263 -14.3839
12377 1 -12.2053 -16.4804 -15.2458 21.8084 17.5333 -15.2458
13193 1 -11.3501 -16.2787 -14.5707 22.6636 17.735 -14.5707
15997 1 -9.9124 -16.4873 -15.231 -9.9124 17.5264 18.7827
5237 1 -8.44538 -16.5518 -15.108 -8.44538 17.4619 18.9057
15998 1 -7.484 -16.2412 -14.5346 -7.484 -16.2412 19.4791
1970 1 -6.08128 -16.2363 -14.1788 -6.08128 -16.2363 -14.1788
4914 1 -5.6866 -16.4546 -15.333 -5.6866 17.5591 -15.333
1461 1 -4.36292 -16.4189 -14.802 -4.36292 -16.4189 -14.802
13151 1 -2.87627 -16.4222 -14.5767 -2.87627 17.5915 -14.5767
10084 1 -1.43277 -15.7958 -14.9404 -1.43277 -15.7958 -14.9404
15673 1 -0.335831 -15.6822 -15.7034 -0.335831 18.3315 18.3103
5989 1 -16.0279 -15.4921 -15.3253 -16.0279 18.5217 -15.3253
6463 1 -12.1037 -15.2371 -14.6846 -12.1037 18.7766 19.3291
14994 1 -11.3903 -14.5816 -15.092 22.6234 19.4321 18.9217
7613 1 -9.29454 -15.4664 -14.6809 -9.29454 18.5473 19.3328
5482 1 -8.61592 -14.1712 -14.7005 -8.61592 19.8426 -14.7005
10048 1 -6.8701 -14.7341 -15.0015 -6.8701 -14.7341 -15.0015
1339 1 -4.61525 -14.589 -14.7197 -4.61525 -14.589 -14.7197
11234 1 -5.08127 -13.6297 -14.3668 -5.08127 -13.6297 19.6469
8838 1 -3.72235 -15.0809 -14.6271 -3.72235 -15.0809 -14.6271
9996 1 -0.568184 -15.2452 -14.3839 33.4455 -15.2452 -14.3839
2114 1 -15.7631 -13.7487 -14.7388 -15.7631 -13.7487 19.2749
16266 1 -14.6448 -14.6126 -14.4622 19.3689 19.4011 -14.4622
8847 1 -14.5062 -13.0431 -15.0534 19.5075 -13.0431 -15.0534
4814 1 -13.6223 -13.5108 -14.8095 -13.6223 20.5029 -14.8095
3967 1 -12.2605 -13.3694 -14.3693 -12.2605 -13.3694 19.6444
7734 1 -10.3042 -13.2844 -15.191 -10.3042 20.7293 18.8227
4829 1 -9.87863 -14.2484 -14.7586 -9.87863 19.7653 -14.7586
15533 1 -6.04853 -13.4553 -15.2077 -6.04853 -13.4553 -15.2077
618 1 -3.83636 -13.051 -14.8264 -3.83636 -13.051 -14.8264
7564 1 -1.46936 -13.8971 -14.959 -1.46936 20.1166 19.0547
5486 1 -2.42959 -12.6158 -15.5819 -2.42959 21.3979 -15.5819
736 1 -15.673 -12.2367 -14.9816 -15.673 -12.2367 -14.9816
3471 1 -13.1703 -12.3452 -14.5924 -13.1703 -12.3452 19.4213
4146 1 -14.209 -11.8769 -14.9838 -14.209 22.1368 -14.9838
10243 1 -12.8967 -11.4383 -13.7889 -12.8967 -11.4383 -13.7889
1868 1 -12.3754 -10.9176 -14.8487 -12.3754 -10.9176 -14.8487
11950 1 -11.2668 -12.7834 -14.524 22.7469 -12.7834 19.4898
8960 1 -9.95906 -12.176 -14.7037 24.0547 -12.176 -14.7037
13170 1 -8.80362 -11.2219 -14.759 -8.80362 22.7918 -14.759
12676 1 -8.81698 -12.276 -15.0774 25.1967 21.7377 -15.0774
14809 1 -7.83368 -12.8114 -14.2804 -7.83368 -12.8114 -14.2804
3460 1 -6.60267 -12.0095 -15.7948 -6.60267 -12.0095 -15.7948
13343 1 -4.86375 -12.3325 -15.2968 -4.86375 21.6812 -15.2968
3884 1 -3.48947 -11.635 -15.2167 -3.48947 -11.635 18.7971
8542 1 -1.69201 -11.5367 -14.8339 -1.69201 -11.5367 -14.8339
2010 1 -1.02079 -12.5098 -14.8706 -1.02079 -12.5098 19.1432
8938 1 -16.6282 -10.3621 -15.154 17.3855 -10.3621 -15.154
2794 1 -15.4454 -11.2106 -15.545 -15.4454 -11.2106 18.4687
921 1 -13.6855 -10.8171 -14.7592 -13.6855 -10.8171 -14.7592
6731 1 -11.601 -10.1198 -15.1838 -11.601 23.8939 18.8299
12072 1 -9.7571 -10.1017 -15.4421 24.2566 -10.1017 18.5716
3263 1 -10.7389 -9.79617 -14.3664 -10.7389 -9.79617 19.6473
130 1 -8.22999 -10.2463 -15.8762 -8.22999 -10.2463 -15.8762
602 1 -6.58072 -10.8247 -14.884 -6.58072 -10.8247 -14.884
3906 1 -6.26352 -9.94554 -15.6718 -6.26352 -9.94554 18.3419
4665 1 -4.89151 -10.7458 -14.7986 -4.89151 23.268 -14.7986
6318 1 -2.58995 -10.2729 -14.1864 -2.58995 -10.2729 19.8274
2121 1 -1.36637 -10.2309 -14.7352 -1.36637 -10.2309 -14.7352
371 1 -15.9272 -16.7841 -0.218495 -15.9272 -16.7841 -0.218495
508 1 -16.2872 -9.45307 -14.8442 -16.2872 -9.45307 19.1695
1348 1 -15.592 -8.87598 -15.481 -15.592 -8.87598 -15.481
5723 1 -14.0399 -9.60967 -15.2376 -14.0399 24.404 -15.2376
8583 1 -13.703 -8.34063 -14.6991 -13.703 -8.34063 -14.6991
8965 1 -12.6752 -8.77437 -15.2702 21.3385 -8.77437 -15.2702
2163 1 -8.718 -9.946 -15.0047 -8.718 -9.946 19.009
791 1 -8.38407 -8.64197 -14.0977 -8.38407 -8.64197 -14.0977
5116 1 -7.32781 -9.84688 -15.1412 -7.32781 -9.84688 -15.1412
3125 1 -4.67757 -8.6622 -14.4004 -4.67757 -8.6622 19.6133
10137 1 -3.80508 -9.56678 -14.9646 -3.80508 -9.56678 -14.9646
3355 1 -1.13936 -9.20592 -15.2792 -1.13936 -9.20592 18.7345
4310 1 -16.0275 -7.26123 -14.8605 -16.0275 26.7525 -14.8605
12128 1 -14.6467 -7.82983 -15.8298 -14.6467 -7.82983 -15.8298
189 1 -14.8996 -8.39345 -14.5894 -14.8996 -8.39345 -14.5894
8388 1 -13.5521 -7.13983 -15.5229 -13.5521 -7.13983 -15.5229
15720 1 -13.316 -7.32123 -14.2578 20.6977 -7.32123 19.7559
8072 1 -10.2245 -9.11653 -15.0241 -10.2245 24.8972 18.9897
15587 1 -11.028 -7.84454 -15.3419 22.9857 -7.84454 18.6718
12672 1 -9.98182 -7.39692 -15.9125 24.0319 -7.39692 -15.9125
8711 1 -8.45705 -7.4804 -14.926 -8.45705 -7.4804 -14.926
15403 1 -5.81162 -7.52393 -14.2726 -5.81162 -7.52393 19.7411
1831 1 -3.06982 -7.8161 -15.1642 -3.06982 -7.8161 -15.1642
320 1 -4.45033 -7.71006 -15.1689 -4.45033 -7.71006 -15.1689
350 1 -1.58217 -7.96221 -15.0367 -1.58217 -7.96221 -15.0367
1366 1 -15.755 -6.03015 -14.5463 -15.755 -6.03015 -14.5463
11824 1 -14.314 -6.76091 -14.7107 19.6997 -6.76091 19.3031
5727 1 -13.0963 -5.82704 -15.6758 -13.0963 -5.82704 -15.6758
8777 1 -12.3956 -6.80939 -14.7097 -12.3956 -6.80939 19.304
12124 1 -10.9512 -6.3888 -14.6825 -10.9512 -6.3888 -14.6825
8225 1 -8.78061 -6.46142 -14.667 -8.78061 -6.46142 -14.667
13013 1 -8.10486 -6.23278 -15.6663 -8.10486 27.7809 -15.6663
9939 1 -7.99348 -5.61025 -14.3649 -7.99348 -5.61025 -14.3649
1593 1 -7.63581 -7.12247 -14.4408 -7.63581 -7.12247 -14.4408
5203 1 -5.67216 -6.30616 -14.6367 -39.6859 -6.30616 -14.6367
8968 1 -2.34776 -6.9809 -14.4032 -2.34776 -6.9809 -14.4032
9034 1 -4.2609 -5.6586 -14.1707 -4.2609 -5.6586 -14.1707
16127 1 -1.27239 -6.59936 -14.2128 -1.27239 -6.59936 19.801
12505 1 -16.6658 -5.35379 -15.2218 17.3479 28.6599 -15.2218
1391 1 -0.991645 -8.72799 -16.5181 -0.991645 -8.72799 -16.5181
2832 1 -14.7253 -5.59641 -14.0633 -14.7253 -5.59641 19.9504
3649 1 -13.7245 -4.69082 -14.8426 -13.7245 -4.69082 -14.8426
4849 1 -11.2929 -4.93543 -14.3418 -11.2929 29.0783 19.672
622 1 -10.0739 -5.05249 -14.6258 -10.0739 -5.05249 -14.6258
9544 1 -8.92234 -4.4934 -14.2342 -8.92234 -4.4934 -14.2342
12771 1 -7.23764 -5.17418 -15.4604 -7.23764 28.8395 -15.4604
8384 1 -6.92795 -5.03544 -13.8937 -6.92795 -5.03544 -13.8937
12043 1 -6.09847 -5.41774 -14.9304 -6.09847 -5.41774 19.0833
14071 1 -5.02348 -4.7706 -15.0505 -5.02348 29.2431 -15.0505
11257 1 -2.56723 -5.2042 -14.6318 -2.56723 -5.2042 19.3819
2242 1 -1.31884 -4.8896 -15.0422 -1.31884 -4.8896 18.9715
865 1 -15.6968 -3.84797 -15.2425 -15.6968 -3.84797 -15.2425
15571 1 -14.7941 -2.75043 -14.8359 19.2196 -2.75043 19.1778
5891 1 -14.6415 -3.82423 -14.8144 -14.6415 -3.82423 -14.8144
5076 1 -13.727 -2.74417 -14.883 -13.727 31.2695 -14.883
7698 1 -10.5859 -3.58951 -14.4011 -10.5859 -3.58951 19.6127
7782 1 -9.84095 -4.1306 -15.3864 -9.84095 -4.1306 18.6273
11751 1 -9.12651 -3.4912 -14.6386 24.8872 -3.4912 19.3751
3805 1 -7.96637 -3.00838 -15.4748 -7.96637 -3.00838 18.5389
3147 1 -6.76137 -3.28897 -14.6951 -6.76137 -3.28897 19.3186
10875 1 -6.00289 -4.07736 -15.2056 28.0108 -4.07736 18.8081
762 1 -5.25615 -3.87411 -14.1932 -5.25615 -3.87411 -14.1932
1788 1 -5.47855 -3.21673 -15.7806 -5.47855 -37.2304 -15.7806
11231 1 -4.07838 -3.86445 -15.31 -4.07838 -3.86445 18.7037
10407 1 -3.06577 -3.87633 -15.9971 -3.06577 -3.87633 -15.9971
5317 1 -2.50197 -3.05395 -13.7747 -2.50197 -3.05395 -13.7747
9082 1 -1.9208 -3.7432 -15.5489 -1.9208 -3.7432 -15.5489
1679 1 -1.59411 -2.57397 -14.3148 -1.59411 -2.57397 -14.3148
7055 1 -0.62844 -2.93822 -15.7873 -0.62844 31.0755 18.2264
5315 1 -16.1853 -2.49764 -15.0927 -16.1853 -2.49764 -15.0927
2174 1 -11.0966 -7.76639 -0.0435006 -11.0966 -7.76639 -0.0435006
15392 1 -15.3301 -1.62108 -14.798 18.6836 -1.62108 19.2157
9365 1 -13.7187 -1.70578 -15.4446 -13.7187 -1.70578 -15.4446
10268 1 -12.4388 -3.21281 -14.822 21.5749 -3.21281 -14.822
8736 1 -12.7434 -1.89508 -14.2097 21.2703 -1.89508 -14.2097
5352 1 -10.6266 -2.07813 -15.0034 -10.6266 -2.07813 -15.0034
14073 1 -11.2197 -1.13126 -14.5349 -11.2197 -1.13126 -14.5349
10506 1 -8.88057 -2.02361 -14.2512 25.1331 -2.02361 19.7625
6177 1 -10.4169 -2.30558 -13.9042 -10.4169 -2.30558 20.1095
6925 1 -8.54158 -2.13403 -15.2573 -8.54158 31.8797 18.7564
1878 1 -7.61085 -2.37433 -13.8306 -7.61085 -2.37433 -13.8306
4263 1 -6.05181 -1.41556 -14.406 -6.05181 -1.41556 -14.406
8871 1 -6.9754 -1.91854 -15.1553 27.0383 -1.91854 -15.1553
8515 1 -5.73995 -2.67291 -14.2065 28.2738 -2.67291 -14.2065
12024 1 -4.49464 -2.13987 -14.3511 -4.49464 -2.13987 19.6627
2026 1 -4.29597 -2.866 -15.7699 -4.29597 -36.8797 -15.7699
15523 1 -2.94556 -1.78674 -14.2894 -2.94556 -1.78674 19.7243
12769 1 -2.32974 -1.51807 -15.169 -2.32974 -1.51807 -15.169
7710 1 -1.12221 -1.83433 -15.122 -1.12221 -1.83433 18.8918
12753 1 -16.4877 -0.377077 -14.9951 17.526 -0.377077 -14.9951
13947 1 -14.3574 -0.624511 -15.0889 19.6563 -0.624511 -15.0889
2291 1 -12.4753 -1.67336 -15.6815 -12.4753 -1.67336 18.3322
5678 1 -10.2125 -0.279888 -15.4347 -10.2125 -0.279888 -15.4347
10746 1 -16.7199 -11.9767 -7.53824 17.2938 -11.9767 26.4755
1336 1 -10.0323 -0.923735 -14.1838 -10.0323 -0.923735 -14.1838
5087 1 -8.67484 -0.952008 -14.5764 -8.67484 -0.952008 -14.5764
8063 1 -5.95673 -0.057949 -14.5735 -5.95673 -0.057949 19.4402
1474 1 -4.91391 -0.172874 -15.0567 -4.91391 -0.172874 -15.0567
13096 1 -4.69164 -1.03275 -15.8831 -4.69164 -1.03275 -15.8831
3835 1 -3.77919 -1.07603 -15.3533 -3.77919 -1.07603 18.6604
13560 1 -2.86488 -0.211167 -14.5235 -2.86488 -0.211167 -14.5235
5379 1 -16.718 -7.38367 -16.8296 -16.718 26.63 -16.8296
8192 1 -16.0994 -15.4732 -13.8395 -16.0994 18.5405 20.1742
295 1 -14.5812 -16.6143 -13.6531 -14.5812 -16.6143 -13.6531
12332 1 -13.0766 -16.5668 -13.5229 20.9372 -16.5668 20.4908
1193 1 -10.4587 -15.4783 -13.8306 -10.4587 -15.4783 -13.8306
4729 1 -11.4342 -16.3841 -13.3526 -11.4342 17.6297 -13.3526
1997 1 -8.79012 -15.5439 -13.8284 -8.79012 -15.5439 -13.8284
2200 1 -9.70569 -16.6617 -13.1602 -9.70569 -16.6617 20.8536
1935 1 -6.83562 -16.8809 -13.5731 -6.83562 -16.8809 -13.5731
5577 1 -3.68142 -16.6362 -13.5731 -3.68142 17.3775 -13.5731
804 1 -2.03338 -16.2067 -13.2661 -2.03338 -16.2067 -13.2661
10787 1 -0.415314 -10.3425 -1.35104 -0.415314 -10.3425 -1.35104
9188 1 -0.640619 -16.6736 -13.931 -0.640619 -16.6736 -13.931
1739 1 -15.3114 -14.7335 -13.3096 -15.3114 -14.7335 -13.3096
2910 1 -13.8794 -14.7945 -12.8158 -13.8794 -14.7945 21.1979
11853 1 -14.3136 -15.9791 -12.7324 19.7001 -15.9791 21.2813
14619 1 -13.06 -14.887 -13.8854 20.9537 19.1267 -13.8854
7751 1 -11.6281 -15.0073 -13.3771 -11.6281 19.0064 20.6366
12340 1 -9.37055 -14.3023 -13.4268 -9.37055 -14.3023 20.5869
2956 1 -8.08958 -14.7113 -13.2338 -8.08958 -14.7113 20.7799
2298 1 -7.28592 -15.2216 -13.8342 -7.28592 -15.2216 20.1795
4926 1 -5.70586 -15.1122 -14.8054 -5.70586 18.9016 -14.8054
11513 1 -5.24447 -15.8809 -13.556 -5.24447 -15.8809 20.4578
6016 1 -2.83547 -14.9286 -13.7521 -2.83547 -14.9286 -13.7521
11512 1 -1.63926 -15.015 -13.6811 -1.63926 -15.015 20.3326
10909 1 -10.9744 -4.4376 -16.8679 23.0393 -4.4376 17.1458
7695 1 -15.7143 -12.8706 -13.8621 -15.7143 21.1431 20.1516
6998 1 -1.14815 -1.67899 -0.849609 -1.14815 -1.67899 -0.849609
15942 1 -14.7809 -13.2279 -13.7155 19.2328 20.7858 -13.7155
1514 1 -13.3446 -13.2872 -13.596 -13.3446 -13.2872 -13.596
8535 1 -12.0034 -13.8188 -13.0962 -12.0034 -13.8188 -13.0962
6711 1 -10.9004 -14.1894 -14.0015 -10.9004 19.8243 20.0122
3871 1 -10.0856 -13.6592 -12.8699 -10.0856 -13.6592 21.1438
4321 1 -8.84435 -13.3391 -13.642 -8.84435 -13.3391 -13.642
9102 1 -7.42039 -13.7832 -14.4188 -7.42039 -13.7832 -14.4188
1798 1 -7.07849 -13.0289 -13.151 -7.07849 -13.0289 -13.151
321 1 -6.29326 -13.6454 -13.7842 -6.29326 -13.6454 -13.7842
839 1 -4.55264 -12.6489 -13.5257 -4.55264 -12.6489 -13.5257
5518 1 -5.45935 -13.9209 -12.8932 -5.45935 20.0928 -12.8932
5291 1 -4.1681 -13.9398 -13.055 -4.1681 20.0739 -13.055
5612 1 -2.0599 -13.902 -14.0746 -2.0599 20.1117 -14.0746
5413 1 -3.12304 -13.401 -13.4709 -3.12304 20.6127 -13.4709
2258 1 -9.78988 -7.18775 -0.117292 -9.78988 -7.18775 -0.117292
10628 1 -0.496122 -14.0706 -13.5324 -0.496122 -14.0706 20.4814
12783 1 -1.39097 -12.7362 -13.687 -1.39097 21.2775 -13.687
3103 1 -15.9073 -11.7195 -13.9592 -15.9073 -11.7195 20.0545
14050 1 -14.6429 -11.7113 -13.761 19.3708 22.3024 20.2527
305 1 -13.8024 -12.3261 -13.1253 -13.8024 -12.3261 -13.1253
1924 1 -12.2897 -12.4259 -12.8399 -12.2897 -12.4259 -12.8399
2243 1 -11.7136 -11.4697 -13.6281 -11.7136 -11.4697 20.3856
12886 1 -9.51243 -12.5137 -13.571 -9.51243 21.5001 -13.571
1663 1 -11.031 -12.6249 -12.9816 -11.031 -12.6249 -12.9816
4413 1 -10.3083 -10.8965 -14.8007 -10.3083 23.1172 -14.8007
7956 1 -9.8399 -11.2953 -12.9943 -9.8399 22.7184 -12.9943
352 1 -8.39882 -11.7323 -13.7909 -8.39882 -11.7323 -13.7909
6141 1 -7.06761 -11.8358 -14.1869 -7.06761 22.1779 19.8268
82 1 -5.51825 -12.2578 -14.4806 -5.51825 -12.2578 -14.4806
4030 1 -4.41895 -11.5937 -14.404 -4.41895 -11.5937 19.6097
8959 1 -3.47028 -12.4615 -12.9041 -3.47028 -12.4615 -12.9041
6512 1 -3.25227 -11.4113 -14.1694 -3.25227 22.6024 19.8443
2128 1 -2.49855 -12.2639 -14.1793 -2.49855 -12.2639 19.8344
3882 1 -2.20351 -12.1642 -12.8717 -2.20351 -12.1642 -12.8717
7166 1 -0.992934 -11.4997 -13.7741 -35.0066 22.514 20.2396
5086 1 -14.6927 -10.3445 -13.053 -14.6927 23.6692 20.9607
11013 1 -15.6452 -10.3652 -14.3455 18.3685 -10.3652 19.6682
4316 1 -13.6952 -9.86442 -13.9772 -13.6952 24.1493 -13.9772
5597 1 -12.0938 -9.70899 -13.9132 -12.0938 24.3047 -13.9132
8527 1 -11.059 -10.653 -13.089 22.9547 -10.653 -13.089
9636 1 -8.68158 -10.6706 -13.6677 -8.68158 -10.6706 -13.6677
9906 1 -5.7637 -9.67578 -14.6223 -5.7637 -9.67578 -14.6223
1109 1 -6.37722 -10.2454 -13.2252 -6.37722 -10.2454 -13.2252
8214 1 -4.92628 -10.398 -13.385 -4.92628 23.6157 20.6287
11018 1 -3.806 -10.4143 -14.1071 -3.806 -10.4143 19.9066
495 1 -2.96407 -11.2908 -12.9763 -2.96407 -11.2908 -12.9763
16370 1 -0.651219 -10.122 -12.9776 -0.651219 23.8917 21.0361
3951 1 -15.4952 -9.20804 -13.3999 -15.4952 -9.20804 20.6138
12058 1 -12.7924 -9.74153 -12.7845 21.2213 -9.74153 21.2292
3748 1 -11.359 -8.79237 -12.6704 -11.359 -8.79237 21.3433
2381 1 -11.534 -8.51203 -14.2699 -11.534 -8.51203 19.7439
4269 1 -10.19 -8.35205 -13.93 -10.19 -8.35205 -13.93
14101 1 -9.60395 -9.73882 -13.8004 -9.60395 24.2749 -13.8004
10702 1 -7.34111 -10.0013 -13.5973 -7.34111 -10.0013 20.4164
2022 1 -6.68647 -8.81427 -13.2501 -6.68647 -8.81427 -13.2501
8340 1 -5.09594 -9.10618 -13.1931 -5.09594 -9.10618 -13.1931
10790 1 -3.37049 -8.96136 -13.985 -3.37049 -8.96136 20.0288
9990 1 -2.13396 -9.03667 -13.8982 -2.13396 -9.03667 -13.8982
4708 1 -2.195 -9.89384 -12.9404 -2.195 -9.89384 -12.9404
10305 1 -15.8217 -7.59496 -12.603 -15.8217 -7.59496 -12.603
806 1 -16.2182 -8.11928 -14.0197 -16.2182 -8.11928 -14.0197
15695 1 -14.5916 -8.31677 -13.0339 19.4221 25.6969 20.9798
8841 1 -12.4997 -8.50466 -13.4957 21.514 -8.50466 -13.4957
1145 1 -11.5462 -7.32263 -13.4206 -11.5462 -7.32263 -13.4206
9831 1 -12.6499 -7.06484 -13.1268 21.3639 -7.06484 -13.1268
472 1 -10.6493 -7.54501 -12.7397 -10.6493 -7.54501 -12.7397
1676 1 -8.24152 -8.08628 -12.9453 -8.24152 -8.08628 -12.9453
1012 1 -7.03673 -7.75691 -12.9708 -7.03673 -7.75691 -12.9708
150 1 -7.24108 -8.3094 -14.4921 -7.24108 -8.3094 -14.4921
11112 1 -6.87942 -6.84133 -13.5869 -6.87942 -6.84133 20.4268
5756 1 -4.7456 -7.48403 -13.6818 -4.7456 26.5297 20.3319
10354 1 -2.76749 -8.08214 -13.517 31.2462 -8.08214 -13.517
5446 1 -1.83767 -8.13083 -12.8027 -35.8514 -8.13083 -12.8027
9579 1 -1.3032 -7.69024 -14.0013 -1.3032 -7.69024 -14.0013
1677 1 -0.280445 -7.22326 -13.3699 -0.280445 -7.22326 -13.3699
8792 1 -9.0144 -16.9587 -2.92464 24.9993 -16.9587 -2.92464
2761 1 -15.1432 -7.31098 -13.456 -15.1432 -7.31098 -13.456
7447 1 -14.5848 -6.05417 -13.0185 -14.5848 -6.05417 20.9952
13964 1 -13.5578 -5.90479 -13.8624 -13.5578 -5.90479 -13.8624
1201 1 -13.7686 -6.79556 -13.2275 -13.7686 -6.79556 -13.2275
11955 1 -11.5629 -5.94071 -13.4907 -11.5629 -5.94071 20.523
12483 1 -10.2432 -6.23295 -13.745 -10.2432 -6.23295 -13.745
9089 1 -9.03371 -7.90027 -13.6826 -9.03371 -7.90027 -13.6826
7035 1 -9.11427 -6.69246 -13.1386 -9.11427 27.3213 20.8751
12149 1 -8.03149 -6.57872 -13.6994 -8.03149 -6.57872 20.3143
1095 1 -7.62279 -5.47633 -12.5904 -7.62279 -5.47633 -12.5904
8390 1 -6.35862 -5.91061 -13.224 -6.35862 -5.91061 -13.224
2075 1 -4.60986 -6.30757 -13.1372 -4.60986 -6.30757 20.8766
10992 1 -3.72845 -7.18443 -13.6673 -3.72845 -7.18443 20.3464
3114 1 -2.75665 -6.64682 -13.1949 -2.75665 -6.64682 -13.1949
4062 1 -0.64092 -5.0451 -14.3039 -0.64092 -5.0451 -14.3039
5143 1 -1.28607 -6.60794 -13.1869 -1.28607 -6.60794 -13.1869
16163 1 -15.9594 -4.63551 -14.1887 18.0543 -4.63551 19.8251
9620 1 -16.5129 -4.12406 -13.2168 17.5008 -4.12406 -13.2168
13312 1 -14.668 -4.39189 -13.4871 19.3457 -4.39189 -13.4871
12818 1 -13.7919 -4.68639 -12.468 20.2218 -4.68639 -12.468
2478 1 -12.1544 -5.80229 -15.0273 -12.1544 -5.80229 18.9864
1 1 -10.5877 -5.02861 -13.1486 -10.5877 -5.02861 -13.1486
9330 1 -9.23538 -5.34972 -13.1306 24.7783 -5.34972 -13.1306
8984 1 -5.43587 -5.02781 -13.6943 -5.43587 -5.02781 -13.6943
5601 1 -4.58236 -4.89799 -12.6739 -4.58236 -4.89799 -12.6739
7702 1 -3.32389 -5.60398 -13.4905 -3.32389 -5.60398 20.5232
1606 1 -1.83466 -5.31736 -13.3482 -1.83466 -5.31736 -13.3482
3078 1 -2.77238 -4.3725 -13.6084 -2.77238 -4.3725 -13.6084
2767 1 -0.0171505 -4.86994 -12.5006 -0.0171505 -4.86994 -12.5006
1383 1 -15.7436 -3.15792 -13.6095 -15.7436 -3.15792 -13.6095
1941 1 -0.238323 -1.60851 -16.8397 -0.238323 -1.60851 -16.8397
11087 1 -13.6107 -3.64124 -13.7766 -13.6107 -3.64124 20.2372
4904 1 -14.7808 -3.33345 -12.9839 -14.7808 -3.33345 -12.9839
5137 1 -12.83 -4.17957 -12.9092 -12.83 -4.17957 -12.9092
224 1 -12.5261 -4.26026 -14.3278 -12.5261 -4.26026 -14.3278
2727 1 -11.6357 -2.47227 -14.0015 -11.6357 -2.47227 -14.0015
1812 1 -10.5743 -3.93708 -13.4096 -10.5743 -3.93708 -13.4096
2138 1 -8.97306 -3.7297 -13.5805 -8.97306 -3.7297 20.4332
9593 1 -8.1963 -4.64127 -13.1817 25.8174 -4.64127 -13.1817
8459 1 -6.97018 -4.13515 -13.0917 -6.97018 -4.13515 -13.0917
3095 1 -5.5175 -3.41785 -12.7259 -5.5175 -3.41785 21.2878
1741 1 -4.07601 -4.15667 -14.0334 -4.07601 -38.1704 -14.0334
8961 1 -4.01185 -3.88499 -12.6505 -4.01185 -3.88499 -12.6505
9145 1 -1.37414 -4.13558 -14.01 -1.37414 -4.13558 -14.01
3970 1 -0.306738 -3.80542 -14.5262 -0.306738 -3.80542 19.4875
554 1 -16.1877 -2.21713 -13.2607 -16.1877 -2.21713 -13.2607
4403 1 -14.0952 -2.23868 -13.6359 -14.0952 -2.23868 -13.6359
2585 1 -15.2804 -2.23573 -12.4647 -15.2804 -2.23573 21.549
2019 1 -14.0507 -1.28198 -12.4363 -14.0507 -1.28198 -12.4363
5897 1 -11.5697 -0.548467 -13.342 -11.5697 -0.548467 -13.342
3124 1 -11.4967 -2.72627 -12.0374 -11.4967 -2.72627 -12.0374
676 1 -9.58631 -1.52115 -12.9954 -9.58631 -1.52115 -12.9954
1617 1 -6.9559 -2.71093 -13.1152 -6.9559 -2.71093 -13.1152
15488 1 -5.7822 -2.12253 -12.9875 28.2315 -2.12253 21.0262
6860 1 -3.41102 -2.68746 -13.1535 -3.41102 -2.68746 20.8602
2003 1 -1.57109 -1.9508 -12.9822 -35.5848 -1.9508 -12.9822
14299 1 -0.536409 -2.3437 -13.4101 -0.536409 -2.3437 -13.4101
13098 1 -14.5681 -0.103211 -13.6504 19.4456 -0.103211 -13.6504
9079 1 -14.8736 -1.57579 -13.8993 19.1401 -1.57579 -13.8993