ITEM: TIMESTEP
7000
ITEM: NUMBER OF ATOMS
16384
ITEM: BOX BOUNDS pp pp pp
-1.7006855707231768e+01 1.7006855707231768e+01
-1.7006855707231768e+01 1.7006855707231768e+01
-1.7006855707231768e+01 1.7006855707231768e+01
ITEM: ATOMS id type x y z xu yu zu
9608 1 -0.485383 -6.14242 -10.7065 -0.485383 -6.14242 -10.7065
11524 1 -1.84064 -12.4355 -0.791383 32.1731 -12.4355 -0.791383
6256 1 -15.8513 -15.9528 -15.6928 -15.8513 18.0609 18.3209
5786 1 -13.2351 -16.6764 -15.7351 -13.2351 17.3373 -15.7351
3418 1 -11.577 -15.591 -15.3874 -11.577 -15.591 18.6263
2027 1 -0.0403169 -1.74922 -10.0559 -0.0403169 -1.74922 -10.0559
644 1 -12.1431 -0.0682951 -11.3679 -12.1431 -0.0682951 -11.3679
15997 1 -9.04886 -16.3808 -15.9602 -9.04886 17.6329 18.0535
9170 1 -2.07426 -16.2448 -3.15883 -2.07426 -16.2448 -3.15883
3899 1 -7.827 -15.6784 -15.7633 -7.827 -15.6784 18.2505
14260 1 -0.452892 -0.0103242 -10.3093 -0.452892 -0.0103242 -10.3093
13961 1 -4.1487 -16.4648 -15.716 -4.1487 17.5489 -15.716
10478 1 -2.01934 -14.3672 -16.4205 -2.01934 -14.3672 17.5932
15536 1 -2.67992 -16.406 -16.5626 -2.67992 17.6077 -16.5626
14759 1 -1.54959 -16.6194 -16.1837 -1.54959 17.3943 17.83
12844 1 -16.5096 -14.7048 -15.0927 17.5041 19.3089 -15.0927
3782 1 -7.39057 -1.89574 -0.955301 -7.39057 -1.89574 -0.955301
2179 1 -15.0371 -16.2171 -3.22745 -15.0371 -16.2171 -3.22745
7981 1 -14.6184 -15.1402 -15.5783 -14.6184 18.8735 18.4354
10387 1 -12.4926 -15.1099 -16.9448 21.5211 -15.1099 17.0689
6866 1 -11.7934 -14.4659 -14.8636 -11.7934 19.5478 19.1501
4484 1 -10.7987 -15.5277 -16.3095 -10.7987 18.486 -16.3095
2753 1 -11.9931 -14.1566 -15.9215 -11.9931 -14.1566 18.0922
4777 1 -5.79809 -0.563376 -1.77291 -5.79809 -0.563376 -1.77291
4718 1 -6.89898 -14.511 -16.3594 -6.89898 -14.511 -16.3594
910 1 -4.9727 -14.2342 -15.2366 -4.9727 -14.2342 -15.2366
11914 1 -3.00641 -15.9945 -15.5136 -3.00641 -15.9945 18.5001
5707 1 -3.28873 -13.7237 -16.1312 -3.28873 20.29 -16.1312
10084 1 -0.613199 -14.2134 -16.0192 -0.613199 -14.2134 -16.0192
15344 1 -16.8155 -13.44 -15.117 17.1982 20.5737 18.8967
8453 1 -15.2886 -14.0032 -15.7126 18.7251 -14.0032 -15.7126
1293 1 -0.463572 -8.90439 -7.78623 -0.463572 -8.90439 -7.78623
2114 1 -13.8593 -14.1278 -15.2509 -13.8593 -14.1278 18.7628
14247 1 -12.6434 -13.6978 -16.8876 -12.6434 20.3159 -16.8876
3531 1 -10.4635 -12.9106 -16.5874 -10.4635 -12.9106 17.4263
6108 1 -6.91424 -0.150704 -10.7631 -6.91424 -0.150704 -10.7631
13995 1 -9.56035 -12.8995 -15.349 -9.56035 21.1142 -15.349
718 1 -2.53045 -0.102231 -7.4939 -2.53045 -0.102231 -7.4939
1048 1 -5.4198 -13.7765 -16.4947 -5.4198 -13.7765 -16.4947
3934 1 -4.55137 -12.863 -16.679 -4.55137 -12.863 17.3348
15205 1 -6.82568 -16.3814 -15.7882 27.188 17.6323 18.2255
1065 1 -1.49785 -13.5802 -15.8259 -1.49785 -13.5802 -15.8259
1271 1 -10.7083 -1.73776 -1.06966 -10.7083 -1.73776 -1.06966
8468 1 -12.9283 -16.6756 -0.662254 21.0854 -16.6756 -0.662254
7037 1 -5.68737 -16.9375 -3.70835 -5.68737 17.0762 -3.70835
5298 1 -5.51066 -16.9675 -4.7965 -5.51066 17.0462 -4.7965
695 1 -5.24407 -16.2634 -11.7278 -5.24407 -16.2634 -11.7278
9359 1 -13.1622 -11.9688 -15.6355 20.8515 -11.9688 -15.6355
1281 1 -9.90329 -11.8353 -16.0987 -9.90329 -11.8353 -16.0987
2449 1 -8.52949 -11.4303 -15.9623 -8.52949 -11.4303 18.0515
10922 1 -7.66124 -11.8327 -16.5249 -7.66124 -11.8327 17.4888
10664 1 -6.19871 -11.7693 -15.2726 27.815 -11.7693 18.7411
618 1 -3.88478 -11.7165 -16.0324 -3.88478 -11.7165 -16.0324
9503 1 -12.5235 -12.4037 -16.8485 21.4902 -12.4037 -16.8485
989 1 -2.00109 -11.474 -16.4507 -2.00109 -11.474 -16.4507
6397 1 -1.33783 -12.28 -15.7604 -1.33783 21.7337 18.2533
5197 1 -9.28838 -0.314057 -0.512099 -9.28838 -0.314057 -0.512099
12058 1 -13.8883 -11.2868 -15.9308 20.1254 -11.2868 18.0829
4276 1 -15.9243 -10.2496 -15.8067 -15.9243 23.7641 -15.8067
11319 1 -12.8894 -9.75819 -16.2966 21.1243 -9.75819 17.7171
4146 1 -12.5735 -11.2433 -16.5952 -12.5735 22.7704 -16.5952
1464 1 -4.03914 -9.00457 -16.6161 -4.03914 -9.00457 -16.6161
3662 1 -0.0987706 -6.94289 -7.58463 -0.0987706 -6.94289 -7.58463
271 1 -5.34628 -11.4655 -16.0374 -5.34628 -11.4655 -16.0374
9347 1 -3.55831 -10.4597 -16.8224 30.4554 -10.4597 -16.8224
2128 1 -2.67535 -11.1576 -15.4835 -2.67535 -11.1576 18.5302
11063 1 -2.29172 -10.359 -16.9761 -2.29172 -10.359 17.0376
10952 1 -0.560122 -11.2593 -16.6069 -0.560122 -11.2593 17.4068
7441 1 -5.61703 -16.8248 -1.3697 -5.61703 17.1889 -1.3697
8583 1 -11.2733 -9.90809 -15.923 -11.2733 -9.90809 -15.923
1145 1 -12.2954 -8.89024 -15.8504 -12.2954 -8.89024 -15.8504
15490 1 -10.4746 -16.1789 -0.192822 23.5391 17.8348 -0.192822
4269 1 -11.2058 -9.22786 -15.0964 -11.2058 -9.22786 -15.0964
1525 1 -5.92064 -0.176096 -3.01378 -5.92064 -0.176096 -3.01378
6129 1 -7.30226 -9.15673 -15.8528 -7.30226 -9.15673 18.1609
13612 1 -8.89517 -9.45808 -16.3695 25.1185 -9.45808 -16.3695
2063 1 -5.76184 -9.13567 -16.4295 -5.76184 -9.13567 17.5842
1666 1 -4.99735 -8.16969 -16.3616 -4.99735 -8.16969 -16.3616
10790 1 -3.33463 -9.93495 -15.7331 -3.33463 -9.93495 18.2806
7473 1 -16.5798 -7.79355 -11.277 -16.5798 -7.79355 -11.277
2393 1 -2.65773 -9.33535 -16.2449 -2.65773 -9.33535 -16.2449
9867 1 -16.9538 -5.15966 -3.56931 17.0599 -5.15966 -3.56931
189 1 -16.8692 -8.34656 -13.8786 -16.8692 -8.34656 -13.8786
8548 1 -1.14216 -9.91605 -16.5827 -1.14216 -9.91605 -16.5827
10419 1 -0.633701 -11.8991 -1.07842 -0.633701 -11.8991 -1.07842
5627 1 -16.6821 -8.26547 -16.2401 -16.6821 -8.26547 -16.2401
15778 1 -15.0699 -7.92377 -16.8825 18.9438 26.0899 17.1312
3951 1 -13.9832 -8.56933 -16.8902 -13.9832 -8.56933 17.1235
702 1 -11.5048 -7.05619 -16.9197 -11.5048 -7.05619 -16.9197
7013 1 -12.9192 -8.49384 -16.9994 -12.9192 25.5199 17.0143
15414 1 -9.59866 -7.79054 -16.669 24.415 -7.79054 17.3447
14117 1 -7.75127 -7.13185 -14.4547 -7.75127 -7.13185 -14.4547
948 1 -9.29994 -7.61937 -15.7258 -9.29994 -7.61937 -15.7258
3547 1 -7.16573 -8.17821 -16.6298 -7.16573 -8.17821 17.384
11112 1 -7.86646 -8.33732 -15.1364 -7.86646 -8.33732 18.8773
461 1 -3.67768 -7.44381 -16.5426 -3.67768 -7.44381 -16.5426
8421 1 -2.729 -7.92599 -15.6998 -2.729 -7.92599 -15.6998
1501 1 -2.94699 0.00752888 -12.2621 -2.94699 0.00752888 -12.2621
528 1 -15.6472 -5.59639 -16.4886 -15.6472 -5.59639 -16.4886
2798 1 -16.2723 -7.18836 -16.0538 17.7414 -7.18836 17.9599
11614 1 -13.9909 -7.15457 -16.5857 20.0228 -7.15457 17.428
9267 1 -14.4168 -6.23067 -16.2328 19.5969 -6.23067 -16.2328
10097 1 -6.64828 -16.9101 -10.7236 -6.64828 -16.9101 -10.7236
3649 1 -14.8355 -6.84827 -14.3891 -14.8355 -6.84827 -14.3891
2832 1 -12.3187 -7.16456 -15.5666 -12.3187 -7.16456 18.4471
9303 1 -14.1315 -16.2847 -5.88153 19.8822 -16.2847 -5.88153
324 1 -10.1288 -6.68286 -15.6354 -10.1288 -6.68286 -15.6354
12459 1 -7.83213 -5.82326 -15.7674 -7.83213 28.1905 -15.7674
476 1 -5.90824 -7.726 -16.7756 -5.90824 -7.726 -16.7756
7837 1 -3.33751 -5.60065 -16.5509 -3.33751 -5.60065 17.4628
15213 1 -2.51112 -6.76489 -16.2851 -2.51112 27.2488 17.7286
1363 1 -16.6279 -11.1669 -15.9702 -16.6279 -11.1669 -15.9702
4453 1 -7.56581 -16.0359 -3.8293 -7.56581 17.9778 -3.8293
15421 1 -1.49016 -7.57684 -15.8988 -1.49016 26.4369 -15.8988
5549 1 -8.59649 -9.05009 -0.764173 -8.59649 24.9636 -0.764173
2254 1 -16.979 -5.27574 -16.2599 -16.979 -5.27574 17.7538
5891 1 -14.8473 -4.67481 -15.724 -14.8473 -4.67481 -15.724
2288 1 -13.5092 -5.98387 -16.956 -13.5092 -5.98387 17.0577
11087 1 -12.7965 -5.14634 -14.9989 -12.7965 -5.14634 19.0148
8388 1 -12.1859 -5.69815 -16.2113 -12.1859 -5.69815 -16.2113
16152 1 -0.624892 -0.0156652 -12.8074 -0.624892 -0.0156652 21.2063
1867 1 -10.3823 -4.64818 -16.4671 -10.3823 -4.64818 -16.4671
15759 1 -11.7622 -16.5477 -3.97071 22.2515 17.466 30.043
11930 1 -10.8514 -5.81922 -15.7867 23.1623 -5.81922 18.227
14187 1 -8.93674 -5.65266 -15.9641 25.077 -5.65266 -15.9641
11415 1 -7.40432 -4.87066 -16.4454 26.6094 -4.87066 17.5683
1020 1 -6.37983 -5.92186 -16.4694 -6.37983 -5.92186 -16.4694
9652 1 -0.0307869 -8.72514 -1.44896 -0.0307869 -8.72514 -1.44896
7755 1 -9.63598 -16.9404 -10.3293 -9.63598 17.0733 23.6844
9314 1 -2.38275 -4.80628 -16.4035 -2.38275 -4.80628 -16.4035
1707 1 -0.645591 -5.07928 -15.0904 -0.645591 -5.07928 -15.0904
12429 1 -1.18553 -6.00474 -16.4032 -1.18553 28.009 -16.4032
865 1 -13.4761 -4.83294 -16.1891 -13.4761 -4.83294 -16.1891
15607 1 -13.968 -1.63244 -16.37 20.0457 -1.63244 17.6437
2906 1 -11.0771 -3.50919 -16.3049 -11.0771 -3.50919 17.7089
13341 1 -5.58547 -16.0126 -9.55557 -5.58547 18.0011 -9.55557
9624 1 -7.7581 -4.04273 -16.0196 26.2556 -4.04273 -16.0196
5081 1 -6.68909 -4.01204 -16.7195 -6.68909 -4.01204 -16.7195
7782 1 -6.55453 -3.55763 -15.5358 -6.55453 -3.55763 18.4779
762 1 -5.39455 -4.49685 -16.2782 -5.39455 -4.49685 -16.2782
2026 1 -4.11772 -3.00522 -15.9555 -4.11772 -37.0189 -15.9555
9145 1 -4.12877 -4.5942 -16.1531 -4.12877 -4.5942 -16.1531
1606 1 -1.10771 -4.28909 -16.2023 -1.10771 -4.28909 -16.2023
9082 1 -1.09894 -2.09551 -16.3527 -1.09894 -2.09551 -16.3527
2252 1 -0.548699 -3.14881 -16.8247 -0.548699 -3.14881 17.189
1528 1 -7.90779 -0.887701 -0.543681 -7.90779 -0.887701 -0.543681
9149 1 -16.302 -2.74247 -15.8762 17.7118 -2.74247 -15.8762
13684 1 -15.0798 -2.34205 -16.6633 18.9339 -2.34205 -16.6633
3051 1 -12.616 -1.87363 -15.8649 -12.616 -1.87363 18.1488
10814 1 -12.0111 -3.08249 -16.102 22.0026 -3.08249 -16.102
1853 1 -3.08629 -8.27301 -16.917 -3.08629 -8.27301 -16.917
1081 1 -3.77594 -0.0732565 -11.7032 -3.77594 -0.0732565 -11.7032
6578 1 -10.1547 -2.5485 -15.7825 -10.1547 -2.5485 18.2312
5665 1 -9.1207 -1.61105 -16.7821 -9.1207 -1.61105 -16.7821
1487 1 -7.91435 -2.79291 -16.5074 -7.91435 -2.79291 -16.5074
12222 1 -6.45386 -2.46595 -16.5275 -6.45386 -2.46595 17.4862
8459 1 -5.1508 -3.11643 -16.6677 -5.1508 -3.11643 -16.6677
4208 1 -2.015 -16.9501 -1.67106 -2.015 17.0636 -1.67106
1589 1 -14.0023 -0.122729 -7.70328 -14.0023 -0.122729 -7.70328
953 1 -0.714743 -0.840663 -16.3391 -0.714743 -0.840663 -16.3391
16350 1 -16.5742 -1.70748 -16.5842 17.4396 -1.70748 17.4295
5315 1 -14.7073 -0.0354485 -16.5086 -14.7073 -0.0354485 -16.5086
819 1 -10.4521 -0.673476 -12.8475 -10.4521 -0.673476 -12.8475
9992 1 -0.282858 -13.1674 -16.4975 33.7309 -13.1674 -16.4975
15340 1 -15.4169 -2.5273 -2.76288 18.5968 -2.5273 -2.76288
2291 1 -11.3793 -1.54819 -15.959 -11.3793 -1.54819 18.0547
16358 1 -7.15399 -1.33574 -16.4927 26.8597 -1.33574 17.521
64 1 -9.29412 -0.829427 -15.8611 -9.29412 -0.829427 -15.8611
6799 1 -6.08882 -0.869878 -16.6314 -6.08882 -0.869878 17.3823
7046 1 -10.3418 -0.182856 -6.2322 -10.3418 -0.182856 27.7815
3835 1 -3.91947 -0.925787 -15.7246 -3.91947 -0.925787 18.2891
4790 1 -2.93446 -0.338939 -15.6518 -2.93446 -0.338939 -15.6518
12294 1 -1.79742 -0.77202 -15.2196 -1.79742 -0.77202 18.7941
12326 1 -14.8968 -16.3227 -14.4252 19.1169 -16.3227 19.5885
13193 1 -14.1235 -16.152 -15.3219 19.8902 17.8617 -15.3219
4829 1 -11.0693 -16.4177 -14.4417 -11.0693 17.596 -14.4417
12680 1 -6.27709 -13.2107 -16.6364 -6.27709 20.803 -16.6364
3521 1 -0.0443234 -11.8821 -4.38313 -0.0443234 -11.8821 -4.38313
10093 1 -8.12454 -16.7209 -15.3533 25.8892 -16.7209 -15.3533
2298 1 -7.79151 -15.9778 -14.463 -7.79151 -15.9778 19.5507
7718 1 -9.72364 -14.7975 -16.9259 -9.72364 19.2162 17.0878
1661 1 -4.1997 -15.6742 -15.0759 -4.1997 -15.6742 -15.0759
4616 1 -2.37179 -16.4213 -14.4228 -2.37179 17.5924 -14.4228
10502 1 -1.05031 -16.5772 -14.3738 32.9634 -16.5772 19.6399
1229 1 -0.699285 -16.2727 -13.3087 -0.699285 -16.2727 -13.3087
10250 1 -15.9583 -15.7515 -13.7747 18.0554 -15.7515 -13.7747
7800 1 -15.9748 -13.88 -14.3966 -15.9748 20.1337 19.6171
14994 1 -12.8423 -15.5669 -14.9259 21.1714 18.4468 19.0878
1414 1 -13.514 -14.8666 -16.3711 -13.514 -14.8666 -16.3711
9994 1 -11.541 -14.1552 -13.3982 22.4727 -14.1552 -13.3982
12676 1 -10.3899 -15.2522 -14.9695 23.6238 18.7616 -14.9695
7734 1 -9.99703 -14.5657 -15.9548 -9.99703 19.448 18.059
9102 1 -8.51678 -14.6698 -15.906 -8.51678 -14.6698 -15.906
1970 1 -6.469 -15.1833 -15.341 -6.469 -15.1833 -15.341
10048 1 -6.26167 -13.5625 -15.5573 -6.26167 -13.5625 -15.5573
12118 1 -4.69263 -14.8269 -14.4047 -4.69263 -14.8269 -14.4047
15814 1 -5.58148 -15.5181 -16.1105 -5.58148 18.4956 17.9032
5291 1 -3.70796 -14.5217 -15.6688 -3.70796 19.492 -15.6688
11359 1 -2.84035 -14.7589 -14.2499 -2.84035 -14.7589 19.7638
15558 1 -1.67402 -15.4178 -15.2191 -1.67402 18.5959 18.7946
9239 1 -15.5732 -12.885 -13.4556 18.4405 21.1287 -13.4556
4910 1 -16.4233 -12.5389 -16.2737 -16.4233 -12.5389 -16.2737
1603 1 -14.5021 -12.9173 -14.9658 -14.5021 -12.9173 -14.9658
11940 1 -12.5239 -13.3122 -14.7009 21.4898 -13.3122 19.3128
6463 1 -10.9962 -13.4726 -15.7528 -10.9962 20.5411 18.2609
2238 1 -12.1959 -12.6446 -13.4671 -12.1959 -12.6446 20.5466
10862 1 -11.1547 -13.0342 -14.3413 22.859 -13.0342 19.6725
14619 1 -10.397 -14.0394 -14.1935 23.6168 19.9743 -14.1935
12072 1 -9.48652 -13.6974 -13.7705 24.5272 -13.6974 20.2432
3745 1 -8.13363 -13.4795 -15.2283 -8.13363 -13.4795 18.7854
5482 1 -8.60435 -13.3281 -16.1476 -8.60435 20.6856 -16.1476
4030 1 -6.49919 -13.7081 -14.335 -6.49919 -13.7081 19.6787
11234 1 -3.60393 -13.6888 -14.9576 -3.60393 -13.6888 19.0561
12295 1 -5.05427 -13.2259 -14.3777 -5.05427 -13.2259 19.636
321 1 -2.76407 -13.3415 -13.7011 -2.76407 -13.3415 -13.7011
10788 1 -2.38786 -13.6959 -15.0704 31.6259 -13.6959 18.9433
7564 1 -2.72792 -12.7542 -16.8518 -2.72792 21.2595 17.1619
3103 1 -16.6089 -11.9365 -14.945 -16.6089 -11.9365 19.0687
2648 1 -13.7159 -16.6215 -12.898 -13.7159 -16.6215 21.1157
888 1 -14.6318 -11.9894 -16.4882 -14.6318 -11.9894 -16.4882
736 1 -13.1056 -12.0475 -14.0092 -13.1056 -12.0475 -14.0092
4814 1 -11.6995 -11.857 -15.9924 -11.6995 22.1567 -15.9924
11950 1 -10.0703 -11.7224 -13.6057 23.9434 -11.7224 20.408
8774 1 -10.9291 -12.4784 -15.2453 -10.9291 -12.4784 -15.2453
12208 1 -7.04653 -10.5029 -15.0947 26.9672 -10.5029 18.919
312 1 -8.74205 -12.3041 -15.3132 -8.74205 -12.3041 18.7005
4980 1 -7.98473 -11.5713 -14.4591 -7.98473 -11.5713 -14.4591
3906 1 -7.27216 -12.617 -15.5586 -7.27216 -12.617 18.4552
13343 1 -6.69152 -11.0148 -14.234 -6.69152 22.9989 -14.234
11401 1 -5.17011 -12.7408 -15.5142 -5.17011 -12.7408 18.4995
12783 1 -2.29825 -12.257 -14.8433 -2.29825 21.7567 -14.8433
516 1 -2.34857 -10.7943 -13.8528 -2.34857 -10.7943 -13.8528
10844 1 -1.10396 -12.7371 -14.2773 -1.10396 -12.7371 19.7364
9246 1 -7.86866 -10.5357 -16.4161 26.145 -10.5357 -16.4161
4923 1 -16.2285 -10.7514 -14.6249 -16.2285 23.2623 -14.6249
305 1 -15.1837 -12.1706 -15.5524 -15.1837 -12.1706 -15.5524
2868 1 -12.1345 -11.5652 -14.6958 -12.1345 -11.5652 19.3179
10385 1 -14.0197 -9.50839 -14.311 19.994 -9.50839 -14.311
8965 1 -10.262 -8.97952 -16.122 23.7517 -8.97952 -16.122
8937 1 -10.89 -11.2188 -14.6579 23.1237 -11.2188 -14.6579
8072 1 -9.33192 -10.5081 -15.9762 -9.33192 23.5056 18.0375
1798 1 -8.2716 -10.467 -15.0131 -8.2716 -10.467 -15.0131
4413 1 -9.57988 -11.3707 -14.8211 -9.57988 22.643 -14.8211
6141 1 -8.31338 -9.34317 -14.8736 -8.31338 24.6705 19.1401
5116 1 -5.80353 -10.4475 -15.9172 -5.80353 -10.4475 -15.9172
15986 1 -8.10946 -10.2074 -13.3897 -8.10946 -10.2074 20.624
10137 1 -4.43889 -10.9445 -15.0183 -4.43889 -10.9445 -15.0183
3125 1 -4.68238 -9.61781 -14.9205 -4.68238 -9.61781 19.0932
9355 1 -1.07237 -11.3127 -15.0024 -1.07237 -11.3127 19.0114
1348 1 -15.8258 -9.17376 -15.4093 -15.8258 -9.17376 -15.4093
15695 1 -15.6577 -9.03118 -14.0118 18.356 24.9825 20.002
10243 1 -14.8684 -9.40141 -15.1146 -14.8684 -9.40141 -15.1146
13199 1 -13.537 -9.78743 -15.2297 -13.537 24.2263 -15.2297
11013 1 -14.0576 -8.29441 -15.3519 19.9561 -8.29441 18.6618
5086 1 -12.1116 -9.58176 -13.723 -12.1116 24.432 20.2907
14050 1 -12.5114 -10.3636 -15.1295 21.5023 23.6501 18.8842
2243 1 -10.2192 -8.97676 -14.1903 -10.2192 -8.97676 19.8234
9906 1 -10.1931 -10.4396 -14.889 -10.1931 -10.4396 -14.889
2163 1 -9.9533 -7.99359 -14.7972 -9.9533 -7.99359 19.2165
8711 1 -7.68255 -9.16301 -13.9959 -7.68255 -9.16301 -13.9959
2490 1 -5.20374 -10.5324 -14.3374 -5.20374 -10.5324 19.6763
1321 1 -6.25906 -9.43143 -14.6088 -6.25906 -9.43143 -14.6088
5446 1 -3.91392 -8.72954 -15.3468 -37.9276 -8.72954 -15.3468
3816 1 -1.78521 -10.2816 -15.3724 -1.78521 -10.2816 18.6413
11018 1 -3.0711 -8.66256 -14.4868 -3.0711 -8.66256 19.5269
9400 1 -15.2262 -7.98555 -15.5346 18.7875 -7.98555 18.4791
7447 1 -13.5662 -7.25358 -14.6493 -13.5662 -7.25358 19.3644
12124 1 -12.0674 -7.76313 -14.3427 -12.0674 -7.76313 -14.3427
12672 1 -10.9322 -7.88645 -15.4637 23.0815 -7.88645 -15.4637
7029 1 -6.32822 -8.18675 -15.5851 -6.32822 25.827 18.4287
9939 1 -6.11053 -7.81068 -14.5374 -6.11053 -7.81068 -14.5374
1727 1 -4.97293 -8.10582 -14.607 -4.97293 -8.10582 -14.607
11923 1 -1.41552 -8.87516 -16.0034 -1.41552 -8.87516 -16.0034
1248 1 -1.65518 -8.12832 -14.799 -1.65518 -8.12832 -14.799
3763 1 -14.7512 -4.01173 -0.909786 -14.7512 -4.01173 -0.909786
12128 1 -15.7042 -6.10649 -15.4827 -15.7042 -6.10649 -15.4827
224 1 -14.2913 -5.63594 -15.0091 -14.2913 -5.63594 -15.0091
8777 1 -11.7395 -6.12391 -14.4801 -11.7395 -6.12391 19.5336
2478 1 -11.064 -6.90712 -14.4603 -11.064 -6.90712 19.5534
10453 1 -9.27468 -6.27143 -14.5725 24.739 -6.27143 19.4412
12771 1 -7.04587 -4.88576 -14.888 -7.04587 29.128 -14.888
12043 1 -5.89179 -6.52903 -15.4188 -5.89179 -6.52903 18.5949
8384 1 -5.03578 -7.03075 -15.9662 -5.03578 -7.03075 -15.9662
9034 1 -3.05588 -6.69613 -15.0057 -3.05588 -6.69613 -15.0057
4941 1 -2.65515 -7.37396 -13.0353 -2.65515 26.6397 -13.0353
4062 1 -1.08429 -6.84079 -15.0297 -1.08429 -6.84079 -15.0297
13312 1 -15.8867 -4.45456 -15.0888 18.1271 -4.45456 -15.0888
4904 1 -13.4715 -4.08574 -14.3072 -13.4715 -4.08574 -14.3072
15042 1 -9.90389 -5.22511 -15.0654 24.1098 -5.22511 18.9483
11190 1 -9.56517 -4.12272 -15.0478 -9.56517 -4.12272 18.9659
10909 1 -9.54923 -6.01694 -13.3757 24.4645 -6.01694 20.638
11751 1 -6.972 -5.64606 -13.7536 27.0417 -5.64606 20.2601
3885 1 -8.36667 -4.86901 -15.2696 -8.36667 -4.86901 18.7441
122 1 -7.1315 -3.81743 -13.9654 -7.1315 -3.81743 -13.9654
14071 1 -6.12932 -5.67976 -14.5523 -6.12932 28.3339 -14.5523
2242 1 -4.73275 -5.72536 -15.4428 -4.73275 -5.72536 18.5709
8984 1 -3.29169 -4.68582 -14.7311 -3.29169 -4.68582 -14.7311
5143 1 -2.20589 -5.81321 -15.5915 -2.20589 -5.81321 -15.5915
1677 1 -2.48976 -5.8487 -14.6011 -2.48976 -5.8487 -14.6011
16163 1 -15.2484 -3.56407 -15.5017 18.7653 -3.56407 18.512
9620 1 -14.3335 -3.06576 -14.0642 19.6802 -3.06576 -14.0642
5131 1 -12.1429 -4.17971 -15.4779 -12.1429 -4.17971 -15.4779
7698 1 -10.9208 -4.45736 -15.5414 -10.9208 -4.45736 18.4723
10506 1 -8.16073 -3.37573 -14.9399 25.853 -3.37573 19.0738
8871 1 -5.48728 -2.16191 -15.9804 28.5264 -2.16191 -15.9804
8515 1 -5.95054 -4.07903 -14.6594 28.0632 -4.07903 -14.6594
5089 1 -3.68766 -3.53264 -15.0872 -3.68766 -3.53264 -15.0872
11231 1 -2.31654 -3.98529 -15.1247 -2.31654 -3.98529 18.889
6601 1 -0.679043 -3.19815 -14.055 -0.679043 -3.19815 19.9587
2366 1 -15.6736 -2.06872 -14.545 -15.6736 -2.06872 19.4687
10583 1 -13.7402 -2.93472 -15.6586 20.2735 -2.93472 -15.6586
9079 1 -14.8197 -2.53189 -15.5102 19.194 -2.53189 -15.5102
12986 1 -10.7802 -3.2015 -14.1793 -10.7802 -3.2015 -14.1793
1279 1 -9.0994 -3.65235 -16.1167 -9.0994 -3.65235 -16.1167
13268 1 -11.4778 -2.26677 -14.5401 -11.4778 -2.26677 -14.5401
14550 1 -8.43404 -2.10224 -15.7013 -8.43404 -2.10224 18.3124
5352 1 -8.16405 -2.12742 -14.5743 -8.16405 -2.12742 -14.5743
12090 1 -5.27102 -2.36167 -14.7083 28.7427 -2.36167 19.3055
5220 1 -6.90125 -1.84949 -15.0926 -6.90125 -1.84949 -15.0926
3286 1 -5.93593 -0.828861 -15.4131 -5.93593 -0.828861 -15.4131
13560 1 -4.84171 -1.45359 -16.6661 -4.84171 -1.45359 -16.6661
12024 1 -3.00873 -2.74768 -14.4671 -3.00873 -2.74768 19.5466
2980 1 -1.98792 -2.61559 -15.7978 -1.98792 -2.61559 -15.7978
10391 1 -0.385008 -3.04803 -15.2685 -0.385008 -3.04803 -15.2685
12405 1 -0.417692 -1.91827 -14.4312 -0.417692 -1.91827 -14.4312
12753 1 -15.6248 -1.25609 -15.9373 18.3889 -1.25609 -15.9373
12660 1 -14.6757 -1.2168 -14.7166 19.338 -1.2168 -14.7166
3915 1 -16.7344 -16.4314 -3.10348 -16.7344 -16.4314 -3.10348
7006 1 -10.0977 -1.70762 -14.9475 -10.0977 -1.70762 19.0662
3495 1 -8.69673 -0.704964 -14.6451 -8.69673 -0.704964 19.3686
6673 1 -10.9951 -3.07796 -0.248786 -10.9951 -3.07796 -0.248786
3147 1 -7.39291 -0.305921 -15.1615 -7.39291 -0.305921 18.8522
9361 1 -4.28064 -0.74097 -14.7654 -4.28064 -0.74097 -14.7654
7102 1 -3.47577 -1.71849 -14.7117 -3.47577 32.2952 19.302
1047 1 -2.99529 -1.71344 -15.8675 -2.99529 -1.71344 -15.8675
4294 1 -4.74756 -6.6924 -0.0653115 -4.74756 -6.6924 -0.0653115
4859 1 -16.5415 -16.3315 -12.7679 -16.5415 17.6823 -12.7679
8786 1 -14.3677 -15.0026 -14.2204 19.646 -15.0026 -14.2204
2939 1 -15.2114 -16.9534 -13.0369 -15.2114 -16.9534 20.9768
4692 1 -16.8626 -9.65044 -14.6957 -16.8626 -9.65044 -14.6957
8535 1 -13.653 -15.8485 -13.8962 -13.653 -15.8485 -13.8962
4438 1 -11.569 -15.5766 -13.8372 -11.569 18.4371 -13.8372
3967 1 -12.1071 -15.2284 -12.7276 -12.1071 -15.2284 21.2861
7751 1 -9.64265 -16.7925 -14.6076 -9.64265 17.2212 19.4061
1013 1 -10.8691 -16.2301 -12.6319 -10.8691 -16.2301 -12.6319
139 1 -0.227182 -9.41901 -2.42522 -0.227182 -9.41901 -2.42522
4519 1 -5.57294 -15.9317 -15.0168 -5.57294 18.082 -15.0168
9278 1 -6.75744 -16.004 -13.4371 -6.75744 -16.004 -13.4371
4680 1 -3.87325 -14.645 -13.5833 -3.87325 19.3687 -13.5833
3417 1 -4.97148 -16.3225 -13.8263 -4.97148 -16.3225 20.1874
10437 1 -2.05269 -1.11942 -0.668019 -2.05269 -1.11942 -0.668019
804 1 -3.30472 -15.9006 -14.1404 -3.30472 -15.9006 -14.1404
14552 1 -1.7966 -15.6856 -13.4448 -1.7966 18.3282 20.5689
634 1 -16.0971 -14.881 -12.3311 17.9166 -14.881 -12.3311
7428 1 -6.07064 -16.1342 -17.0187 -6.07064 17.8795 16.995
5832 1 -12.5346 -13.9241 -12.6744 -12.5346 20.0896 -12.6744
1193 1 -10.6883 -14.9143 -13.3057 -10.6883 -14.9143 -13.3057
2933 1 -11.2693 -14.6237 -12.1159 -11.2693 -14.6237 21.8978
6420 1 -9.04509 -15.4124 -14.8748 -9.04509 18.6013 19.1389
5518 1 -8.11565 -14.9935 -13.2422 -8.11565 19.0202 -13.2422
15998 1 -5.92446 -14.6904 -14.3788 -5.92446 -14.6904 19.6349
12550 1 -5.28922 -14.4798 -13.1938 -5.28922 -14.4798 -13.1938
8838 1 -4.58212 -12.79 -12.416 -4.58212 -12.79 -12.416
6016 1 -3.06578 -14.9601 -12.9265 -3.06578 -14.9601 -12.9265
5413 1 -0.352625 -14.9717 -13.5773 -0.352625 19.042 -13.5773
4844 1 -9.56243 -16.989 -1.3194 -9.56243 17.0247 -1.3194
8192 1 -15.2723 -14.4661 -13.5925 -15.2723 19.5476 20.4212
7292 1 -14.0257 -14.5017 -0.958268 -14.0257 19.5121 -0.958268
411 1 -14.0523 -14.5546 -13.0804 -14.0523 -14.5546 -13.0804
921 1 -12.5719 -14.4197 -13.8485 -12.5719 -14.4197 -13.8485
1924 1 -13.7932 -12.5981 -12.9508 -13.7932 -12.5981 -12.9508
12886 1 -10.1426 -12.6783 -13.2531 -10.1426 21.3354 -13.2531
7688 1 -9.1797 -14.9028 -13.7965 -9.1797 -14.9028 20.2173
1663 1 -7.97666 -12.7797 -12.661 -7.97666 -12.7797 -12.661
82 1 -9.05098 -14.4787 -12.5376 -9.05098 -14.4787 -12.5376
5235 1 -7.70723 -14.4329 -14.6321 -7.70723 -14.4329 -14.6321
10853 1 -6.9011 -12.4946 -13.8814 -6.9011 -12.4946 -13.8814
11513 1 -4.03466 -13.7037 -13.2318 -4.03466 -13.7037 20.7819
8889 1 -1.8503 -13.745 -14.2098 -1.8503 -13.745 -14.2098
10628 1 -0.880368 -14.4664 -14.941 -0.880368 -14.4664 19.0727
1241 1 -0.119049 -12.2853 -13.8557 -34.1328 -12.2853 -13.8557
7695 1 -15.9794 -12.0037 -14.1615 -15.9794 22.01 19.8522
16266 1 -14.0626 -11.7319 -14.7029 19.9511 22.2818 -14.7029
256 1 -14.4861 -11.4522 -13.5711 -14.4861 -11.4522 -13.5711
6711 1 -11.5817 -11.3075 -13.6686 -11.5817 22.7062 20.3451
4246 1 -9.19986 -12.1864 -14.0679 -9.19986 21.8273 -14.0679
3070 1 -8.27368 -13.2478 -13.8578 -8.27368 -13.2478 20.1559
6512 1 -5.51855 -12.1002 -13.9213 -5.51855 21.9135 20.0924
839 1 -4.79154 -11.8264 -12.9921 -4.79154 -11.8264 -12.9921
2217 1 -3.77687 -12.0227 -11.6739 -3.77687 -12.0227 22.3398
16370 1 -3.70245 -11.3288 -12.9379 -3.70245 22.6849 21.0759
13639 1 -2.68995 -12.0297 -13.3218 -2.68995 21.984 -13.3218
1072 1 -12.7162 -0.679218 -16.1458 -12.7162 -0.679218 -16.1458
1883 1 -14.8491 -10.498 -14.623 -14.8491 -10.498 -14.623
8527 1 -12.6841 -11.3102 -13.087 21.3296 -11.3102 -13.087
10702 1 -10.2858 -10.6385 -12.9454 -10.2858 -10.6385 21.0684
2569 1 -11.2442 -10.0323 -14.1111 -11.2442 -10.0323 19.9026
3645 1 -7.29944 -11.8699 -12.8573 -7.29944 -11.8699 21.1564
5756 1 -6.14922 -11.0702 -12.806 -6.14922 22.9435 21.2077
1675 1 -4.47168 -10.5665 -13.0794 -4.47168 -10.5665 -13.0794
602 1 -5.2581 -9.63693 -13.0795 -5.2581 -9.63693 -13.0795
4665 1 -3.55913 -12.2621 -14.5078 -3.55913 21.7517 -14.5078
10240 1 -2.15662 -9.55012 -13.44 -2.15662 -9.55012 -13.44
15317 1 -11.7828 -0.677731 -1.80334 22.2309 -0.677731 -1.80334
9579 1 -1.58001 -11.7855 -12.7453 -1.58001 -11.7855 -12.7453
6853 1 -16.5321 -9.53881 -13.3989 -16.5321 24.4749 20.6149
4316 1 -15.2285 -9.79186 -13.1507 -15.2285 24.2219 -13.1507
13987 1 -12.8532 -8.51454 -14.4678 21.1605 -8.51454 -14.4678
5597 1 -12.796 -10.5045 -13.7577 -12.796 23.5092 -13.7577
1228 1 -11.2729 -9.58322 -12.3964 -11.2729 -9.58322 -12.3964
791 1 -9.7426 -8.71499 -12.6283 -9.7426 -8.71499 -12.6283
12785 1 -9.2217 -9.6816 -13.6404 -9.2217 -9.6816 -13.6404
15352 1 -8.65611 -11.1612 -13.2876 25.3576 -11.1612 20.7262
13170 1 -8.91597 -8.34619 -13.7072 -8.91597 25.6675 -13.7072
13515 1 -6.58318 -8.9037 -13.4483 27.4305 -8.9037 -13.4483
7878 1 -6.88199 -9.47686 -12.5857 -6.88199 24.5369 21.428
6318 1 -3.15025 -9.93347 -12.6133 -3.15025 -9.93347 21.4004
6427 1 -4.71761 -8.57879 -12.3956 -4.71761 25.4349 21.6181
1831 1 -3.46382 -9.92027 -13.8328 -3.46382 -9.92027 -13.8328
13435 1 -3.20115 -8.64894 -13.1166 -3.20115 25.3648 -13.1166
10615 1 -1.2339 -9.18663 -14.4057 -1.2339 -9.18663 19.608
2121 1 -1.76862 -8.40675 -13.483 -1.76862 -8.40675 -13.483
14547 1 -15.9403 -7.8789 -14.0912 18.0734 -7.8789 19.9225
12643 1 -0.26108 -3.73337 -6.87239 -0.26108 -3.73337 -6.87239
7783 1 -14.757 -8.11957 -14.5723 -14.757 25.8941 -14.5723
2381 1 -12.7771 -7.44188 -13.6691 -12.7771 -7.44188 20.3446
3748 1 -12.8151 -9.39234 -12.6675 -12.8151 -9.39234 21.3462
845 1 -11.5933 -8.3727 -13.1758 -11.5933 -8.3727 -13.1758
11161 1 -10.351 -7.8961 -11.3994 23.6627 -7.8961 22.6143
352 1 -10.0309 -7.13648 -13.9679 -10.0309 -7.13648 -13.9679
320 1 -8.7402 -7.85274 -14.9085 -8.7402 -7.85274 -14.9085
1012 1 -7.67448 -8.05468 -13.2341 -7.67448 -8.05468 -13.2341
7035 1 -7.04372 -6.44701 -12.5309 -7.04372 27.5667 21.4828
9916 1 -4.20632 -7.34509 -11.6521 -4.20632 -7.34509 -11.6521
350 1 -3.97401 -7.11973 -14.0643 -3.97401 -7.11973 -14.0643
12283 1 -0.260548 -9.04953 -13.4205 -0.260548 -9.04953 20.5932
456 1 -0.210195 -7.27065 -16.5801 -0.210195 -7.27065 -16.5801
11824 1 -15.8927 -6.42402 -12.5983 18.121 -6.42402 21.4154
12818 1 -14.8265 -7.32056 -13.1685 19.1872 -7.32056 -13.1685
6725 1 -12.7843 -6.13858 -14.4695 -12.7843 -6.13858 19.5442
1511 1 -13.7812 -6.74557 -13.58 -13.7812 -6.74557 -13.58
4753 1 -12.1294 -5.37133 -13.1748 -12.1294 -5.37133 -13.1748
9089 1 -11.1378 -7.19971 -13.0484 -11.1378 -7.19971 -13.0484
12483 1 -10.6167 -6.16221 -12.6544 -10.6167 -6.16221 -12.6544
13013 1 -7.90751 -6.47785 -13.5419 -7.90751 27.5359 -13.5419
13514 1 -6.10958 -6.81493 -13.8426 -6.10958 -6.81493 -13.8426
452 1 -5.18377 -6.96148 -14.6594 -5.18377 -6.96148 -14.6594
2075 1 -4.04364 -5.51297 -14.0513 -4.04364 -5.51297 19.9624
11915 1 -3.15778 -6.2304 -13.1948 -3.15778 -6.2304 20.8189
5203 1 -4.57996 -4.65186 -14.7111 -38.5937 -4.65186 -14.7111
9790 1 -1.4981 -6.0378 -13.7877 -1.4981 -6.0378 -13.7877
14414 1 -1.81901 -5.20934 -12.6323 -1.81901 -5.20934 21.3815
9990 1 -1.08238 -7.50954 -13.9425 -1.08238 -7.50954 -13.9425
13257 1 -5.97374 -11.5019 -0.06865 -5.97374 22.5118 -0.06865
468 1 -15.5058 -5.87099 -14.5051 -15.5058 -5.87099 -14.5051
15775 1 -15.503 -3.06707 -14.4607 18.5108 -3.06707 19.553
1 1 -15.4301 -5.28953 -13.5254 -15.4301 -5.28953 -13.5254
10268 1 -11.434 -4.90661 -14.3797 22.5797 -4.90661 -14.3797
5221 1 -10.0216 -5.36029 -14.0455 -10.0216 28.6534 19.9682
11830 1 -10.6207 -4.58238 -12.5181 23.393 -4.58238 21.4956
2498 1 -11.7648 -4.53102 -12.3506 -11.7648 -4.53102 -12.3506
9330 1 -9.44666 -4.39479 -13.3838 24.567 -4.39479 -13.3838
8225 1 -6.80376 -5.03961 -12.3306 -6.80376 -5.03961 -12.3306
1741 1 -5.37761 -5.92976 -13.1884 -5.37761 -39.9435 -13.1884
3114 1 -3.18509 -4.91252 -13.5672 -3.18509 -4.91252 -13.5672
15544 1 -1.14415 -4.48257 -13.7987 -1.14415 -4.48257 20.2151
9666 1 -14.5365 -4.33692 -13.8265 19.4773 -4.33692 -13.8265
5332 1 -12.2908 -3.84165 -13.8134 -12.2908 -3.84165 20.2003
5137 1 -13.3013 -3.54802 -12.5472 -13.3013 -3.54802 -12.5472
1527 1 -12.1091 -3.1517 -12.8799 -12.1091 -3.1517 -12.8799
4849 1 -9.31535 -3.3877 -14.2331 -9.31535 30.626 19.7806
2727 1 -11.1005 -2.8215 -12.9883 -11.1005 -2.8215 -12.9883
3855 1 -8.15401 -2.82194 -13.7114 -8.15401 -2.82194 20.3023
10130 1 -7.8191 -4.2358 -13.1704 26.1946 -4.2358 -13.1704
5974 1 -6.56438 -2.56611 -13.9935 -6.56438 -2.56611 -13.9935
1878 1 -6.95873 -3.68396 -12.3149 -6.95873 -3.68396 -12.3149
4263 1 -6.02963 -4.02494 -13.3064 -6.02963 -4.02494 -13.3064
4386 1 -2.17741 -3.98751 -13.6035 -2.17741 -3.98751 -13.6035
838 1 -4.99828 -3.7718 -14.2007 -4.99828 -3.7718 -14.2007
7710 1 -1.1735 -3.29168 -13.01 -1.1735 -3.29168 21.0037
5317 1 -3.08528 -2.17474 -11.9489 -3.08528 -2.17474 -11.9489
8954 1 -5.91736 -9.71452 -0.110275 28.0964 -9.71452 -0.110275
5076 1 -16.2998 -2.68275 -13.3871 -16.2998 31.331 -13.3871
3574 1 -15.2555 -2.23392 -12.722 -15.2555 -2.23392 21.2917
8736 1 -13.7531 -2.58285 -13.2104 20.2606 -2.58285 -13.2104
1336 1 -12.3104 -3.15978 -14.881 -12.3104 -3.15978 -14.881
13232 1 -10.6815 -4.23222 -13.8237 23.3322 -4.23222 -13.8237
14073 1 -11.3198 -1.79762 -13.1557 -11.3198 -1.79762 -13.1557
3805 1 -10.2203 -2.08814 -13.797 -10.2203 -2.08814 20.2167
13491 1 -9.04601 -2.4287 -12.7806 24.9677 31.585 -12.7806
5049 1 -7.18435 -2.4126 -12.8614 -7.18435 -2.4126 -12.8614
9206 1 -6.42433 -1.74466 -13.1681 -6.42433 -1.74466 -13.1681
8063 1 -4.05094 -2.00431 -13.7839 -4.05094 -2.00431 20.2298
1679 1 -3.54922 -2.97251 -13.2419 -3.54922 -2.97251 -13.2419
2003 1 -1.58495 -1.23561 -11.2225 -35.5987 -1.23561 -11.2225