ITEM: TIMESTEP
2000
ITEM: NUMBER OF ATOMS
16384
ITEM: BOX BOUNDS pp pp pp
-1.7006855707231768e+01 1.7006855707231768e+01
-1.7006855707231768e+01 1.7006855707231768e+01
-1.7006855707231768e+01 1.7006855707231768e+01
ITEM: ATOMS id type x y z xu yu zu
7216 1 -16.2299 -16.2149 -16.1554 -16.2299 17.7988 17.8583
4592 1 -7.65775 -16.9877 -3.46859 -7.65775 17.026 -3.46859
6256 1 -14.5246 -16.0884 -15.8922 -14.5246 17.9253 18.1215
8923 1 -13.4646 -16.9918 -16.2519 -13.4646 -16.9918 -16.2519
6676 1 -16.8668 -0.29501 -10.5124 -16.8668 -0.29501 23.5013
4276 1 -16.8669 -11.785 -12.7739 -16.8669 22.2287 -12.7739
9994 1 -10.8337 -15.7901 -15.0904 23.18 -15.7901 -15.0904
1281 1 -9.36446 -15.156 -15.7153 -9.36446 -15.156 -15.7153
7543 1 -13.141 -0.712414 -1.78729 -13.141 -0.712414 -1.78729
7718 1 -7.00708 -16.11 -16.0958 -7.00708 17.9037 17.9179
11359 1 -4.18537 -15.0292 -15.7187 -4.18537 -15.0292 18.295
7428 1 -6.13088 -16.8713 -16.4427 -6.13088 17.1424 17.571
15558 1 -2.99949 -15.0013 -15.7203 -2.99949 19.0124 18.2934
1661 1 -1.81132 -16.2417 -16.6783 -1.81132 -16.2417 -16.6783
1456 1 -0.12919 -11.3217 -5.18446 -0.12919 -11.3217 -5.18446
2184 1 -12.5124 -0.195865 -10.1893 -12.5124 -0.195865 -10.1893
11628 1 -14.0029 -14.5297 -15.5902 20.0108 -14.5297 18.4235
6866 1 -12.8819 -14.5912 -15.5912 -12.8819 19.4225 18.4225
2939 1 -13.0303 -15.7562 -15.8968 -13.0303 -15.7562 18.117
13995 1 -11.9828 -14.5563 -16.4698 -11.9828 19.4574 -16.4698
2162 1 -8.35944 -15.7676 -14.8643 -8.35944 -15.7676 19.1494
3010 1 -7.36819 -14.9183 -16.7319 -7.36819 -14.9183 17.2818
14222 1 -14.5877 -0.819276 -1.52258 19.426 -0.819276 -1.52258
7864 1 -6.11648 -15.0615 -16.3311 -6.11648 18.9522 17.6826
3790 1 -4.81549 -0.345962 -9.47925 -4.81549 -0.345962 24.5345
15863 1 -2.79101 -13.8099 -15.4696 -2.79101 20.2038 18.5441
7837 1 -1.00522 -5.65525 -16.4753 -1.00522 -5.65525 17.5384
14337 1 -0.158162 -14.0992 -15.4806 -0.158162 19.9145 18.5332
10387 1 -14.2165 -13.2319 -16.4874 19.7972 -13.2319 17.5263
1414 1 -13.2257 -13.0925 -16.0036 -13.2257 -13.0925 -16.0036
2933 1 -12.2767 -13.0986 -15.5676 -12.2767 -13.0986 18.4461
12208 1 -9.40827 -13.9193 -15.5388 24.6054 -13.9193 18.4749
3899 1 -8.53067 -14.6137 -16.0893 -8.53067 -14.6137 17.9244
312 1 -6.76387 -12.778 -15.384 -6.76387 -12.778 18.6297
1795 1 -5.10835 -12.7508 -16.6122 -5.10835 -12.7508 -16.6122
13970 1 -4.58079 -13.9093 -15.7771 -4.58079 -13.9093 -15.7771
10752 1 -3.81681 -13.2282 -16.2407 -3.81681 -13.2282 17.773
8141 1 -3.54358 -0.108491 -12.4811 -3.54358 -0.108491 21.5326
1852 1 -1.61927 -13.6727 -16.283 -1.61927 -13.6727 -16.283
10478 1 -0.0671506 -12.8924 -16.0387 -0.0671506 -12.8924 17.975
9992 1 -0.966771 -15.0017 -16.3139 33.0469 -15.0017 -16.3139
4406 1 -9.72234 -16.9097 -10.7655 -9.72234 17.104 -10.7655
4910 1 -16.7333 -12.836 -15.9264 -16.7333 -12.836 -15.9264
11940 1 -15.7036 -12.1444 -16.5138 18.3101 -12.1444 17.5
8635 1 -13.8362 -11.9992 -16.7803 20.1775 -11.9992 -16.7803
2238 1 -12.6589 -12.1946 -15.7143 -12.6589 -12.1946 18.2995
6272 1 -10.6123 -13.6278 -16.2334 -10.6123 20.3859 17.7803
5478 1 -9.21356 -13.2376 -16.7864 -9.21356 20.7761 -16.7864
3531 1 -11.4444 -12.2562 -16.0943 -11.4444 -12.2562 17.9194
3604 1 -8.10683 -11.8502 -15.4923 -8.10683 -11.8502 18.5214
13712 1 -1.20838 -1.35787 -1.84325 -1.20838 -1.35787 -1.84325
9592 1 -7.29195 -10.7322 -16.2379 -7.29195 -10.7322 -16.2379
6634 1 -1.38976 -16.3177 -3.12867 -1.38976 17.696 -3.12867
11401 1 -4.06919 -11.8533 -16.5098 -4.06919 -11.8533 17.5039
120 1 -16.8793 -8.17284 -5.43238 -16.8793 -8.17284 -5.43238
2882 1 -1.88378 -11.7543 -16.5712 -1.88378 -11.7543 17.4425
4912 1 -14.7011 -16.942 -5.27311 -14.7011 17.0717 -5.27311
10276 1 -15.5325 -10.0441 -15.6063 18.4812 -10.0441 -15.6063
2569 1 -14.1802 -10.3386 -16.5356 -14.1802 -10.3386 17.4782
2868 1 -12.8942 -11.1244 -15.6785 -12.8942 -11.1244 18.3352
1228 1 -13.6135 -9.03033 -15.772 -13.6135 -9.03033 -15.772
11768 1 -3.31199 -16.9918 -10.2851 -3.31199 17.0219 23.7286
5569 1 -5.90345 -0.430707 -6.01475 -5.90345 -0.430707 -6.01475
13199 1 -11.6118 -11.0115 -16.3362 -11.6118 23.0023 -16.3362
4023 1 -9.24266 -11.4644 -16.7704 -9.24266 -11.4644 17.2434
15352 1 -7.39234 -9.62635 -16.5946 26.6214 -9.62635 17.4191
271 1 -5.00763 -10.8938 -16.1089 -5.00763 -10.8938 -16.1089
6129 1 -5.72275 -9.57919 -16.5993 -5.72275 -9.57919 17.4144
11063 1 -3.11517 -10.3738 -15.9279 -3.11517 -10.3738 18.0858
9355 1 -1.62586 -10.3153 -15.904 -1.62586 -10.3153 18.1098
14498 1 -1.02536 -11.4578 -15.4528 -1.02536 -11.4578 18.561
374 1 -16.4663 -6.91006 -5.58536 -16.4663 -6.91006 -5.58536
1378 1 -14.4795 -9.06442 -16.8931 -14.4795 -9.06442 -16.8931
1278 1 -11.989 -9.9174 -16.6546 -11.989 -9.9174 -16.6546
7013 1 -12.0133 -8.24372 -16.3765 -12.0133 25.77 17.6372
6218 1 -10.753 -9.70187 -16.7484 -10.753 24.3118 17.2654
2449 1 -9.1515 -9.48396 -15.4449 -9.1515 -9.48396 18.5688
3547 1 -6.30164 -8.49474 -16.5953 -6.30164 -8.49474 17.4184
13515 1 -6.69901 -8.58348 -15.5737 27.3147 -8.58348 -15.5737
3816 1 -4.32991 -9.85658 -16.1211 -4.32991 -9.85658 17.8926
10615 1 -2.94478 -9.15618 -15.3085 -2.94478 -9.15618 18.7052
4474 1 -1.82381 -9.5307 -15.034 -1.82381 24.483 -15.034
7298 1 -1.0662 -16.7231 -14.9376 -1.0662 17.2906 19.0761
8581 1 -0.466942 -9.84922 -15.7956 -0.466942 -9.84922 -15.7956
15248 1 -4.58626 -16.6176 -3.28515 -4.58626 17.3961 -3.28515
12127 1 -6.98273 -16.8677 -2.49786 -6.98273 -16.8677 31.5158
8111 1 -5.66632 -16.8387 -0.160196 -5.66632 17.175 -0.160196
1070 1 -11.554 -7.52513 -15.4502 -11.554 -7.52513 -15.4502
3592 1 -10.5888 -7.90747 -16.763 -10.5888 -7.90747 17.2507
9539 1 -8.18746 -8.49788 -16.1073 -8.18746 -8.49788 -16.1073
3885 1 -8.53179 -7.04657 -16.4938 -8.53179 -7.04657 17.5199
10922 1 -6.19306 -11.2892 -16.7732 -6.19306 -11.2892 17.2405
1321 1 -5.47447 -8.07448 -15.9475 -5.47447 -8.07448 -15.9475
11740 1 -13.179 -0.0437041 -12.322 20.8347 -0.0437041 21.6917
2393 1 -3.88906 -8.32169 -15.6551 -3.88906 -8.32169 -15.6551
3995 1 -2.54102 -8.32506 -16.345 -2.54102 -8.32506 17.6687
1612 1 -1.63035 -7.33597 -16.6524 -1.63035 -7.33597 -16.6524
12118 1 -6.11167 -13.666 -16.3647 -6.11167 -13.666 -16.3647
898 1 -15.992 -7.77093 -15.5887 -15.992 -7.77093 -15.5887
9267 1 -14.0405 -6.96219 -16.137 19.9732 -6.96219 -16.137
10912 1 -12.3317 -6.19126 -16.8099 21.682 -6.19126 17.2038
11629 1 -1.42584 -0.711896 -3.00864 -1.42584 -0.711896 -3.00864
704 1 -11.2002 -6.71724 -16.5163 -11.2002 -6.71724 -16.5163
12161 1 -4.09651 -0.0340738 -1.04802 -4.09651 -0.0340738 -1.04802
10453 1 -9.91354 -6.05215 -15.4239 24.1002 -6.05215 18.5898
11571 1 -7.34902 -6.72537 -16.669 -7.34902 -6.72537 17.3447
9862 1 -16.969 -1.56629 -8.42446 17.0447 -1.56629 -8.42446
12459 1 -6.83864 -7.13757 -15.6184 -6.83864 26.8761 -15.6184
461 1 -5.41098 -7.04698 -15.6694 -5.41098 -7.04698 -15.6694
9916 1 -3.43219 -7.12622 -16.049 -3.43219 -7.12622 -16.049
7878 1 -4.37037 -6.68396 -15.2204 -4.37037 27.3298 18.7933
7029 1 -3.35616 -5.52331 -15.2924 -3.35616 28.4904 18.7213
15213 1 -2.46701 -6.83134 -15.5923 -2.46701 27.1824 18.4215
13146 1 -15.6293 -4.85242 -16.3417 18.3844 -4.85242 -16.3417
3107 1 -0.0302909 -0.172645 -2.64486 -0.0302909 -0.172645 -2.64486
9329 1 -0.174518 -10.4443 -9.96062 -0.174518 -10.4443 -9.96062
4340 1 -6.48044 -16.4446 -5.3877 -6.48044 17.5691 -5.3877
5221 1 -12.1923 -5.27128 -15.8385 -12.1923 28.7424 18.1753
528 1 -14.4812 -5.65944 -15.5486 -14.4812 -5.65944 -15.5486
14117 1 -10.9644 -5.20596 -16.2799 -10.9644 -5.20596 -16.2799
13232 1 -10.6862 -3.03835 -15.6922 23.3275 -3.03835 -15.6922
13514 1 -8.32893 -4.92564 -15.6348 -8.32893 -4.92564 -15.6348
5974 1 -7.76551 -3.98456 -15.1825 -7.76551 -3.98456 -15.1825
8721 1 -6.47188 -6.01559 -16.3969 -6.47188 -6.01559 -16.3969
2169 1 -6.85831 -4.54543 -16.7344 -6.85831 -4.54543 17.2793
7149 1 -4.6488 -4.38657 -16.636 -4.6488 -4.38657 17.3777
3977 1 -5.78861 -4.72681 -16.3249 -5.78861 -4.72681 17.6888
1666 1 -4.32547 -5.89581 -16.1355 -4.32547 -5.89581 -16.1355
5089 1 -2.36307 -4.79356 -16.777 -2.36307 -4.79356 -16.777
5332 1 -12.6539 -4.05195 -15.5434 -12.6539 -4.05195 18.4703
6519 1 -0.841443 -4.38053 -16.2372 -0.841443 -4.38053 17.7765
2288 1 -14.4569 -4.24967 -16.1924 -14.4569 -4.24967 17.8213
6725 1 -13.5996 -3.29652 -16.5121 -13.5996 -3.29652 17.5016
11830 1 -10.8248 -4.61721 -14.989 23.1889 -4.61721 19.0247
3574 1 -11.7299 -2.30548 -14.8701 -11.7299 -2.30548 19.1436
3855 1 -10.2293 -2.22313 -16.5321 -10.2293 -2.22313 17.4816
5081 1 -8.48389 -3.5387 -16.678 -8.48389 -3.5387 -16.678
2560 1 -4.29638 -3.11004 -16.8409 -4.29638 -3.11004 17.1728
12301 1 -7.36798 -3.19911 -16.2543 -7.36798 -3.19911 17.7594
3839 1 -3.30406 -2.59813 -15.9339 -3.30406 -2.59813 18.0798
1564 1 -16.082 -16.4722 -1.73944 -16.082 -16.4722 -1.73944
471 1 -3.03356 -0.161523 -9.71632 -3.03356 -0.161523 -9.71632
8110 1 -5.70412 -16.8281 -13.5031 -5.70412 17.1856 20.5106
16350 1 -15.9955 -0.852421 -16.5172 18.0182 -0.852421 17.4965
233 1 -14.4267 -2.83784 -15.6567 -14.4267 -2.83784 -15.6567
14759 1 -0.640035 -16.9463 -16.2081 -0.640035 17.0674 17.8056
570 1 -12.2454 -2.96771 -16.1308 -12.2454 -2.96771 -16.1308
9624 1 -9.32222 -3.37058 -16.0092 24.6915 -3.37058 -16.0092
6997 1 -0.707023 -16.0943 -7.55921 -0.707023 17.9194 -7.55921
1279 1 -8.57789 -2.11871 -16.5319 -8.57789 -2.11871 -16.5319
2191 1 -7.41069 -1.19773 -15.8087 -7.41069 -1.19773 18.205
4080 1 -8.27764 -0.11761 -3.62 -8.27764 -0.11761 -3.62
7492 1 -5.76398 -2.45236 -16.0759 -5.76398 -2.45236 17.9378
476 1 -3.71365 -2.80415 -14.5836 -3.71365 -2.80415 -14.5836
4790 1 -2.33513 -2.3612 -15.5595 -2.33513 -2.3612 -15.5595
2701 1 -15.3517 -2.05534 -16.1856 -15.3517 -2.05534 17.8282
2366 1 -13.7547 -1.19391 -16.739 -13.7547 -1.19391 17.2747
5524 1 -12.5208 -0.552389 -16.1376 -12.5208 -0.552389 -16.1376
4453 1 -6.69509 -16.996 -4.01856 -6.69509 17.0177 -4.01856
5131 1 -11.4913 -1.72123 -16.4016 -11.4913 -1.72123 -16.4016
11317 1 -10.6802 -0.199236 -17.002 23.3335 -0.199236 17.0117
292 1 -8.05924 -16.7064 -13.5759 -8.05924 -16.7064 -13.5759
5665 1 -9.39603 -1.17544 -16.3633 -9.39603 -1.17544 -16.3633
10257 1 -15.266 -10.2239 -0.0694548 18.7478 -10.2239 -34.0832
15471 1 -8.57564 -0.796327 -15.1056 25.4381 -0.796327 18.9081
10781 1 -5.47999 -1.55035 -17.0226 -5.47999 -1.55035 16.9911
6799 1 -3.65321 -0.995631 -16.5818 -3.65321 -0.995631 17.4319
478 1 -2.20165 -1.72518 -16.9817 -2.20165 -35.7389 -16.9817
12294 1 -2.08033 -0.520789 -16.4728 -2.08033 -0.520789 17.5409
1472 1 -0.548846 -1.08993 -16.0025 -0.548846 -1.08993 -16.0025
4794 1 -15.4363 -17.018 -15.3389 -15.4363 16.9957 -15.3389
7981 1 -15.1403 -15.9232 -14.1577 -15.1403 18.0905 19.856
1625 1 -13.6609 -15.6059 -14.7217 -13.6609 -15.6059 -14.7217
12377 1 -12.3954 -16.9483 -15.6359 21.6183 17.0655 -15.6359
13193 1 -11.7724 -15.9916 -14.0247 22.2414 18.0221 -14.0247
15997 1 -10.032 -16.5989 -15.7208 -10.032 17.4148 18.2929
5237 1 -9.22473 -16.795 -14.9017 -9.22473 17.2187 19.1121
15998 1 -7.60744 -16.6193 -15.1708 -7.60744 -16.6193 18.8429
1970 1 -6.47407 -15.9147 -14.6202 -6.47407 -15.9147 -14.6202
7396 1 -0.392639 -0.602416 -8.30384 -0.392639 -0.602416 25.7099
1461 1 -5.2756 -16.0362 -14.6891 -5.2756 -16.0362 -14.6891
13151 1 -2.51893 -16.5732 -14.6658 -2.51893 17.4406 -14.6658
10084 1 -1.51058 -15.0089 -15.2682 -1.51058 -15.0089 -15.2682
15673 1 -0.451469 -15.845 -15.4136 -0.451469 18.1687 18.6001
5989 1 -16.0995 -14.9363 -15.5141 -16.0995 19.0774 -15.5141
6463 1 -11.771 -15.6996 -15.6679 -11.771 18.3141 18.3458
14994 1 -11.3917 -13.9244 -15.4528 22.622 20.0893 18.5609
7613 1 -9.5686 -15.2586 -14.5248 -9.5686 18.7551 19.4889
5482 1 -8.5151 -14.0281 -14.9338 -8.5151 19.9856 -14.9338
10048 1 -6.81468 -14.615 -15.2182 -6.81468 -14.615 -15.2182
1339 1 -4.64395 -14.5362 -13.7953 -4.64395 -14.5362 -13.7953
11234 1 -4.58269 -13.0575 -14.279 -4.58269 -13.0575 19.7347
8838 1 -3.89164 -15.6001 -14.2556 -3.89164 -15.6001 -14.2556
9996 1 -0.150687 -15.2243 -14.0451 33.863 -15.2243 -14.0451
2114 1 -14.9718 -14.4425 -15.096 -14.9718 -14.4425 18.9177
16266 1 -13.9413 -14.3237 -14.1164 20.0724 19.69 -14.1164
8847 1 -14.6473 -13.1176 -14.9163 19.3664 -13.1176 -14.9163
4814 1 -13.2337 -13.591 -14.9598 -13.2337 20.4227 -14.9598
3967 1 -12.4077 -13.1043 -14.1735 -12.4077 -13.1043 19.8402
7734 1 -10.1223 -12.65 -15.3529 -10.1223 21.3638 18.6608
4829 1 -10.3102 -14.3268 -14.8446 -10.3102 19.6869 -14.8446
15533 1 -5.51815 -13.8477 -15.2403 -5.51815 -13.8477 -15.2403
618 1 -3.40432 -12.693 -15.002 -3.40432 -12.693 -15.002
7564 1 -1.605 -13.8054 -14.9982 -1.605 20.2083 19.0155
5486 1 -2.73627 -12.4935 -15.9132 -2.73627 21.5202 -15.9132
736 1 -15.8213 -12.6473 -15.1494 -15.8213 -12.6473 -15.1494
3471 1 -13.5755 -12.0983 -14.0586 -13.5755 -12.0983 19.9551
4146 1 -14.2983 -11.4957 -15.4889 -14.2983 22.518 -15.4889
10243 1 -12.5112 -11.0083 -13.8879 -12.5112 -11.0083 -13.8879
1868 1 -12.3804 -10.5978 -14.7918 -12.3804 -10.5978 -14.7918
11950 1 -11.724 -12.2731 -14.52 22.2897 -12.2731 19.4938
8960 1 -10.1413 -11.5615 -14.1171 23.8724 -11.5615 -14.1171
13170 1 -8.0983 -10.8221 -15.1572 -8.0983 23.1917 -15.1572
12676 1 -9.43427 -12.4747 -14.4086 24.5794 21.539 -14.4086
14809 1 -7.78821 -13.0364 -14.1659 -7.78821 -13.0364 -14.1659
3460 1 -6.01117 -11.9717 -15.9173 -6.01117 -11.9717 -15.9173
13343 1 -4.37439 -12.4664 -15.5289 -4.37439 21.5473 -15.5289
3884 1 -2.92632 -11.3687 -15.2414 -2.92632 -11.3687 18.7724
8542 1 -2.13981 -11.1339 -14.6178 -2.13981 -11.1339 -14.6178
2010 1 -1.42246 -12.5401 -15.5854 -1.42246 -12.5401 18.4283
8938 1 -16.3194 -11.5223 -15.3427 17.6943 -11.5223 -15.3427
2794 1 -15.4111 -11.0591 -16.1307 -15.4111 -11.0591 17.883
921 1 -13.9456 -10.6999 -14.2798 -13.9456 -10.6999 -14.2798
6731 1 -11.4962 -9.78442 -15.4412 -11.4962 24.2293 18.5725
12072 1 -9.74584 -10.6815 -15.8158 24.2679 -10.6815 18.198
3263 1 -10.9808 -9.56805 -13.488 -10.9808 -9.56805 20.5257
130 1 -8.54169 -10.7019 -16.5467 -8.54169 -10.7019 -16.5467
602 1 -6.01121 -10.9199 -14.4539 -6.01121 -10.9199 -14.4539
3906 1 -6.33486 -10.5306 -15.9677 -6.33486 -10.5306 18.046
4665 1 -5.01625 -10.4549 -14.9949 -5.01625 23.5588 -14.9949
6318 1 -2.83889 -10.3131 -14.0716 -2.83889 -10.3131 19.9421
2121 1 -1.10967 -10.2472 -14.3053 -1.10967 -10.2472 -14.3053
371 1 -15.9889 -16.8324 -0.546126 -15.9889 -16.8324 -0.546126
508 1 -16.9194 -9.22624 -14.6739 -16.9194 -9.22624 19.3398
1348 1 -15.6642 -8.85371 -15.1672 -15.6642 -8.85371 -15.1672
5723 1 -14.4087 -10.1887 -15.1831 -14.4087 23.825 -15.1831
8583 1 -13.6032 -7.81161 -15.1998 -13.6032 -7.81161 -15.1998
8965 1 -12.694 -9.78524 -15.5711 21.3197 -9.78524 -15.5711
2163 1 -7.98062 -9.70687 -15.6533 -7.98062 -9.70687 18.3604
791 1 -8.4502 -8.74438 -13.47 -8.4502 -8.74438 -13.47
5116 1 -6.90874 -10.0574 -14.9283 -6.90874 -10.0574 -14.9283
3125 1 -5.03674 -9.15181 -14.4291 -5.03674 -9.15181 19.5847
10137 1 -4.21344 -9.50336 -15.0725 -4.21344 -9.50336 -15.0725
3355 1 -0.69532 -9.04151 -14.8003 -0.69532 -9.04151 19.2134
4310 1 -15.3297 -6.68733 -15.3422 -15.3297 27.3264 -15.3422
12128 1 -14.4471 -8.047 -15.9901 -14.4471 -8.047 -15.9901
189 1 -14.7017 -7.96492 -14.0892 -14.7017 -7.96492 -14.0892
8388 1 -12.8167 -6.99334 -15.9561 -12.8167 -6.99334 -15.9561
15720 1 -13.051 -7.84985 -13.8464 20.9627 -7.84985 20.1673
8072 1 -10.3479 -9.34064 -15.0972 -10.3479 24.6731 18.9165
15587 1 -10.7158 -8.25373 -15.558 23.2979 -8.25373 18.4557
12672 1 -9.80527 -7.36747 -15.5342 24.2084 -7.36747 -15.5342
8711 1 -9.05215 -7.97247 -14.7928 -9.05215 -7.97247 -14.7928
15403 1 -6.29456 -7.75504 -14.37 -6.29456 -7.75504 19.6437
1831 1 -3.12368 -8.0612 -14.8522 -3.12368 -8.0612 -14.8522
320 1 -4.84845 -7.75018 -14.8246 -4.84845 -7.75018 -14.8246
350 1 -1.5908 -8.25654 -14.8945 -1.5908 -8.25654 -14.8945
1366 1 -15.8799 -5.55319 -14.5105 -15.8799 -5.55319 -14.5105
11824 1 -14.1233 -6.86785 -14.435 19.8904 -6.86785 19.5787
5727 1 -13.3899 -5.73597 -16.063 -13.3899 -5.73597 -16.063
8777 1 -12.1355 -6.80962 -14.6025 -12.1355 -6.80962 19.4112
12124 1 -10.7775 -7.30221 -14.4605 -10.7775 -7.30221 -14.4605
8225 1 -9.01534 -6.69828 -15.0043 -9.01534 -6.69828 -15.0043
13013 1 -8.01163 -6.19307 -15.7997 -8.01163 27.8206 -15.7997
9939 1 -7.97702 -5.84772 -14.3135 -7.97702 -5.84772 -14.3135
1593 1 -7.88316 -7.5604 -14.847 -7.88316 -7.5604 -14.847
5203 1 -5.44846 -6.29263 -14.38 -39.4622 -6.29263 -14.38
8968 1 -1.6185 -6.74565 -14.4652 -1.6185 -6.74565 -14.4652
9034 1 -4.2905 -5.59495 -14.5179 -4.2905 -5.59495 -14.5179
16127 1 -1.25211 -5.69302 -14.6072 -1.25211 -5.69302 19.4065
12505 1 -16.8671 -5.01561 -15.2609 17.1466 28.9981 -15.2609
835 1 -4.45103 -16.9143 -7.16344 -4.45103 -16.9143 -7.16344
2832 1 -14.3759 -5.44088 -14.4639 -14.3759 -5.44088 19.5498
3649 1 -13.4743 -4.65171 -15.33 -13.4743 -4.65171 -15.33
4849 1 -11.194 -5.22416 -13.7194 -11.194 28.7896 20.2944
622 1 -10.1316 -4.90638 -14.1141 -10.1316 -4.90638 -14.1141
9544 1 -8.90012 -5.09307 -14.1338 -8.90012 -5.09307 -14.1338
12771 1 -7.23131 -5.29719 -15.4879 -7.23131 28.7165 -15.4879
8384 1 -6.72967 -5.31017 -13.8317 -6.72967 -5.31017 -13.8317
12043 1 -5.95839 -5.47652 -14.8423 -5.95839 -5.47652 19.1714
14071 1 -4.98624 -4.77747 -15.2382 -4.98624 29.2362 -15.2382
11257 1 -2.7376 -5.17455 -14.3006 -2.7376 -5.17455 19.7131
2242 1 -1.9244 -5.21438 -15.3655 -1.9244 -5.21438 18.6482
865 1 -15.9096 -3.56801 -15.7886 -15.9096 -3.56801 -15.7886
15571 1 -14.3935 -1.96783 -14.3304 19.6202 -1.96783 19.6833
5891 1 -14.4319 -3.82786 -14.7989 -14.4319 -3.82786 -14.7989
5076 1 -13.0761 -3.0158 -15.1158 -13.0761 30.9979 -15.1158
7698 1 -10.153 -3.46938 -14.5139 -10.153 -3.46938 19.4998
7782 1 -10.1241 -4.43036 -15.696 -10.1241 -4.43036 18.3177
11751 1 -8.70598 -3.42042 -14.6812 25.3077 -3.42042 19.3325
3805 1 -7.85496 -2.76106 -14.9926 -7.85496 -2.76106 19.0211
3147 1 -6.60693 -3.27052 -14.6014 -6.60693 -3.27052 19.4123
10875 1 -6.67089 -4.27157 -15.2791 27.3428 -4.27157 18.7346
762 1 -5.72499 -3.5192 -13.7851 -5.72499 -3.5192 -13.7851
1788 1 -5.70095 -3.77169 -15.8274 -5.70095 -37.7854 -15.8274
11231 1 -3.47135 -4.34364 -15.1724 -3.47135 -4.34364 18.8413
10407 1 -3.25605 -4.07005 -16.3347 -3.25605 -4.07005 -16.3347
5317 1 -3.01659 -3.60564 -14.6483 -3.01659 -3.60564 -14.6483
9082 1 -2.1562 -3.57594 -15.6219 -2.1562 -3.57594 -15.6219
1679 1 -1.97075 -2.35641 -14.4424 -1.97075 -2.35641 -14.4424
7055 1 -1.05817 -2.99834 -16.6486 -1.05817 31.0154 17.3651
5315 1 -16.0852 -2.17075 -15.3275 -16.0852 -2.17075 -15.3275
2174 1 -10.9653 -7.6198 -0.622818 -10.9653 -7.6198 -0.622818
15392 1 -15.5894 -1.21093 -15.0019 18.4243 -1.21093 19.0118
9365 1 -13.5997 -1.40272 -15.4013 -13.5997 -1.40272 -15.4013
10268 1 -12.127 -4.08018 -14.3258 21.8867 -4.08018 -14.3258
8736 1 -12.9356 -1.6909 -14.161 21.0781 -1.6909 -14.161
5352 1 -9.61063 -2.31046 -15.0482 -9.61063 -2.31046 -15.0482
14073 1 -11.531 -0.921606 -14.085 -11.531 -0.921606 -14.085
10506 1 -9.23262 -2.96205 -13.7084 24.7811 -2.96205 20.3053
6177 1 -10.9624 -2.14861 -12.8004 -10.9624 -2.14861 21.2133
6925 1 -8.44877 -1.83291 -15.2055 -8.44877 32.1808 18.8082
1878 1 -7.33464 -2.13027 -14.0312 -7.33464 -2.13027 -14.0312
4263 1 -6.00152 -1.89036 -14.01 -6.00152 -1.89036 -14.01
8871 1 -6.95764 -1.89292 -15.2001 27.0561 -1.89292 -15.2001
8515 1 -5.69476 -2.61183 -14.9147 28.319 -2.61183 -14.9147
12024 1 -4.79634 -1.75485 -14.6383 -4.79634 -1.75485 19.3755
2026 1 -4.61612 -3.14118 -15.2102 -4.61612 -37.1549 -15.2102
15523 1 -3.11518 -2.15055 -13.7709 -3.11518 -2.15055 20.2428
12769 1 -2.66361 -1.23996 -15.8118 -2.66361 -1.23996 -15.8118
7710 1 -0.823616 -2.09206 -15.3427 -0.823616 -2.09206 18.671
12753 1 -16.2933 -0.438193 -14.8876 17.7204 -0.438193 -14.8876
13947 1 -15.3048 -0.14783 -15.8664 18.709 -0.14783 -15.8664
2291 1 -11.8958 -1.21684 -15.0916 -11.8958 -1.21684 18.9221
5678 1 -9.93137 -0.404384 -15.7624 -9.93137 -0.404384 -15.7624
10746 1 -16.3624 -11.7802 -7.4782 17.6514 -11.7802 26.5355
1336 1 -10.2469 -1.13987 -13.9285 -10.2469 -1.13987 -13.9285
5087 1 -8.98842 -1.64451 -13.8798 -8.98842 -1.64451 -13.8798
8063 1 -6.31972 -0.578737 -14.227 -6.31972 -0.578737 19.7868
1474 1 -4.81944 -0.508002 -15.154 -4.81944 -0.508002 -15.154
13096 1 -4.73581 -1.7963 -15.8066 -4.73581 -1.7963 -15.8066
3835 1 -3.69411 -1.49144 -14.7485 -3.69411 -1.49144 19.2652
13560 1 -2.47347 -0.41565 -14.3735 -2.47347 -0.41565 -14.3735
5379 1 -16.6742 -7.18728 -16.3695 -16.6742 26.8264 -16.3695
8192 1 -16.315 -15.3303 -13.4255 -16.315 18.6834 20.5882
295 1 -14.334 -16.8227 -13.7263 -14.334 -16.8227 -13.7263
12332 1 -12.7849 -16.7749 -13.5588 21.2288 -16.7749 20.4549
1193 1 -10.5752 -15.4423 -13.4927 -10.5752 -15.4423 -13.4927
4729 1 -11.6128 -16.4953 -12.892 -11.6128 17.5184 -12.892
1997 1 -8.77909 -15.5856 -13.635 -8.77909 -15.5856 -13.635
2200 1 -9.81521 -16.5089 -13.2455 -9.81521 -16.5089 20.7682
12834 1 -17.003 -13.9604 -8.87181 17.0108 20.0534 -8.87181
5577 1 -3.80814 -16.6503 -14.2999 -3.80814 17.3634 -14.2999
804 1 -1.61836 -16.3126 -13.4365 -1.61836 -16.3126 -13.4365
10787 1 -1.07283 -10.4537 -1.17515 -1.07283 -10.4537 -1.17515
9188 1 -0.485968 -16.6881 -14.035 -0.485968 -16.6881 -14.035
1739 1 -15.0589 -15.1452 -12.9165 -15.0589 -15.1452 -12.9165
2910 1 -14.0869 -14.4944 -13.1418 -14.0869 -14.4944 20.8719
11853 1 -14.0069 -16.3487 -12.5304 20.0068 -16.3487 21.4833
14619 1 -12.7307 -14.8622 -14.2843 21.283 19.1515 -14.2843
7751 1 -11.7153 -14.9895 -13.7358 -11.7153 19.0243 20.278
12340 1 -9.05464 -14.6865 -12.9638 -9.05464 -14.6865 21.0499
2956 1 -7.41403 -14.7526 -12.67 -7.41403 -14.7526 21.3437
2298 1 -7.64472 -15.5074 -14.0636 -7.64472 -15.5074 19.9501
4926 1 -5.29454 -14.928 -14.9181 -5.29454 19.0857 -14.9181
11513 1 -5.12849 -15.46 -13.6887 -5.12849 -15.46 20.325
6016 1 -3.18169 -14.8707 -13.699 -3.18169 -14.8707 -13.699
11512 1 -1.62595 -15.3239 -13.9802 -1.62595 -15.3239 20.0336
10909 1 -10.6975 -3.66574 -16.9305 23.3162 -3.66574 17.0832
7695 1 -15.9368 -12.6098 -14.0047 -15.9368 21.4039 20.0091
6998 1 -1.81 -1.63561 -0.704735 -1.81 -1.63561 -0.704735
15942 1 -14.3205 -13.409 -13.4566 19.6932 20.6047 -13.4566
1514 1 -13.0706 -13.8423 -13.0942 -13.0706 -13.8423 -13.0942
8535 1 -11.7355 -13.6522 -13.0715 -11.7355 -13.6522 -13.0715
6711 1 -10.8851 -13.6617 -13.9469 -10.8851 20.352 20.0668
3871 1 -10.1723 -13.2632 -12.6208 -10.1723 -13.2632 21.3929
4321 1 -8.97167 -13.6994 -14.0657 -8.97167 -13.6994 -14.0657
9102 1 -7.13454 -14.0655 -14.0665 -7.13454 -14.0655 -14.0665
1798 1 -7.24398 -12.4254 -13.237 -7.24398 -12.4254 -13.237
321 1 -5.83523 -14.0923 -13.6324 -5.83523 -14.0923 -13.6324
839 1 -3.66065 -12.4587 -13.6498 -3.66065 -12.4587 -13.6498
5518 1 -5.63855 -14.0721 -12.4476 -5.63855 19.9416 -12.4476
5291 1 -3.77675 -14.1936 -12.9067 -3.77675 19.8201 -12.9067
5612 1 -2.22989 -14.2199 -14.321 -2.22989 19.7938 -14.321
5413 1 -3.26746 -13.6753 -14.2294 -3.26746 20.3384 -14.2294
11282 1 -8.46527 -16.8272 -10.7724 -8.46527 -16.8272 23.2413
10628 1 -1.02991 -13.7624 -13.2257 -1.02991 -13.7624 20.788
12783 1 -1.60203 -13.1295 -14.089 -1.60203 20.8842 -14.089
3103 1 -15.609 -11.2662 -14.3655 -15.609 -11.2662 19.6482
14050 1 -13.7065 -10.8216 -13.2076 20.3072 23.1921 20.8061
305 1 -13.867 -12.5964 -13.0781 -13.867 -12.5964 -13.0781
1924 1 -12.0211 -12.8097 -12.4624 -12.0211 -12.8097 -12.4624
2243 1 -11.3196 -11.0346 -14.3194 -11.3196 -11.0346 19.6943
12886 1 -9.40844 -12.5317 -13.0025 -9.40844 21.482 -13.0025
1663 1 -10.9034 -12.6693 -13.7995 -10.9034 -12.6693 -13.7995
4413 1 -10.3596 -10.3704 -14.4602 -10.3596 23.6433 -14.4602
7956 1 -10.2209 -11.466 -12.9741 -10.2209 22.5477 -12.9741
352 1 -8.01308 -11.6008 -13.6322 -8.01308 -11.6008 -13.6322
6141 1 -6.77418 -11.779 -14.8751 -6.77418 22.2348 19.1386
82 1 -6.5605 -13.181 -14.2254 -6.5605 -13.181 -14.2254
4030 1 -5.14172 -11.7147 -14.5423 -5.14172 -11.7147 19.4714
8959 1 -3.20784 -12.7813 -12.4696 -3.20784 -12.7813 -12.4696
6512 1 -3.1504 -11.4634 -13.6211 -3.1504 22.5504 20.3926
2128 1 -2.39924 -12.4387 -14.6111 -2.39924 -12.4387 19.4026
3882 1 -1.78178 -12.5778 -12.896 -1.78178 -12.5778 -12.896
7166 1 -1.11949 -11.5203 -13.6388 -35.1332 22.4934 20.3749
5086 1 -14.8012 -9.96511 -12.9662 -14.8012 24.0486 21.0475
11013 1 -15.7581 -10.1811 -13.8588 18.2556 -10.1811 20.1549
4316 1 -13.3233 -8.96493 -14.0306 -13.3233 25.0488 -14.0306
5597 1 -12.4322 -9.57744 -13.8611 -12.4322 24.4363 -13.8611
8527 1 -11.1025 -10.7573 -13.2367 22.9112 -10.7573 -13.2367
9636 1 -9.56207 -10.5192 -13.1907 -9.56207 -10.5192 -13.1907
9906 1 -6.20893 -9.15636 -14.729 -6.20893 -9.15636 -14.729
1109 1 -5.7133 -9.98754 -13.5637 -5.7133 -9.98754 -13.5637
8214 1 -4.71658 -10.6508 -13.5764 -4.71658 23.3629 20.4373
11018 1 -3.88193 -10.6054 -14.4478 -3.88193 -10.6054 19.5659
495 1 -3.71657 -10.8957 -12.3291 -3.71657 -10.8957 -12.3291
16370 1 -0.62071 -10.1445 -13.027 -0.62071 23.8692 20.9867
3951 1 -15.366 -9.22558 -13.8328 -15.366 -9.22558 20.1809
12058 1 -13.6721 -9.74217 -13.1159 20.3416 -9.74217 20.8979
3748 1 -10.7384 -8.55856 -13.089 -10.7384 -8.55856 20.9247
2381 1 -11.9527 -8.80004 -14.7378 -11.9527 -8.80004 19.2759
4269 1 -10.3458 -8.31977 -14.2612 -10.3458 -8.31977 -14.2612
14101 1 -9.59666 -9.47275 -14.1377 -9.59666 24.541 -14.1377
10702 1 -8.03361 -10.3947 -13.9055 -8.03361 -10.3947 20.1083
2022 1 -7.09578 -9.56496 -13.4488 -7.09578 -9.56496 -13.4488
8340 1 -5.7524 -8.66182 -13.3205 -5.7524 -8.66182 -13.3205
10790 1 -3.58442 -9.04731 -13.5571 -3.58442 -9.04731 20.4566
9990 1 -2.31608 -9.25467 -13.8697 -2.31608 -9.25467 -13.8697
4708 1 -2.68755 -9.59779 -12.3744 -2.68755 -9.59779 -12.3744
10305 1 -15.9339 -7.96486 -12.4217 -15.9339 -7.96486 -12.4217
806 1 -16.1908 -8.19319 -14.0762 -16.1908 -8.19319 -14.0762
15695 1 -14.6778 -8.55794 -13.1702 19.336 25.4558 20.8435
8841 1 -12.0034 -8.44794 -12.7526 22.0103 -8.44794 -12.7526
1145 1 -11.5153 -7.39106 -13.5512 -11.5153 -7.39106 -13.5512
9831 1 -12.678 -7.06042 -12.7302 21.3357 -7.06042 -12.7302
472 1 -10.869 -7.67479 -12.412 -10.869 -7.67479 -12.412
1676 1 -7.92044 -8.21323 -12.6734 -7.92044 -8.21323 -12.6734
1012 1 -6.85086 -7.70599 -13.4127 -6.85086 -7.70599 -13.4127
150 1 -7.48492 -8.96247 -14.6097 -7.48492 -8.96247 -14.6097
11112 1 -6.86103 -6.392 -14.5762 -6.86103 -6.392 19.4375
5756 1 -4.71871 -7.95778 -13.7282 -4.71871 26.0559 20.2855
10354 1 -2.69158 -7.47889 -13.5877 31.3221 -7.47889 -13.5877
5446 1 -2.50195 -8.29417 -12.679 -36.5157 -8.29417 -12.679
9579 1 -0.698212 -8.32421 -13.5881 -0.698212 -8.32421 -13.5881
3302 1 -16.6083 -11.8049 -16.9816 -16.6083 -11.8049 17.0322
14072 1 -0.350337 -6.10021 -1.59882 -0.350337 27.9135 -1.59882
2761 1 -15.315 -7.40795 -13.3221 -15.315 -7.40795 -13.3221
7447 1 -14.8992 -6.13816 -13.3368 -14.8992 -6.13816 20.6769
13964 1 -13.3712 -6.23265 -14.8879 -13.3712 -6.23265 -14.8879
1201 1 -14.2166 -7.58507 -12.7847 -14.2166 -7.58507 -12.7847
11955 1 -12.398 -6.08368 -13.3949 -12.398 -6.08368 20.6188
12483 1 -10.246 -6.06975 -13.9141 -10.246 -6.06975 -13.9141
9089 1 -9.51202 -8.01263 -13.5793 -9.51202 -8.01263 -13.5793
7035 1 -9.11002 -6.78504 -13.7441 -9.11002 27.2287 20.2697
12149 1 -7.68839 -6.38653 -12.5816 -7.68839 -6.38653 21.4321
1095 1 -7.10599 -5.44811 -12.7519 -7.10599 -5.44811 -12.7519
8390 1 -6.0947 -6.09643 -12.9042 -6.0947 -6.09643 -12.9042
2075 1 -4.59308 -6.75207 -13.7053 -4.59308 -6.75207 20.3084
10992 1 -3.55919 -6.85082 -14.3125 -3.55919 -6.85082 19.7012
3114 1 -2.63761 -6.41558 -13.6923 -2.63761 -6.41558 -13.6923
4062 1 -0.373341 -4.79663 -14.3105 -0.373341 -4.79663 -14.3105
5143 1 -1.55511 -7.36602 -12.8217 -1.55511 -7.36602 -12.8217
16163 1 -15.8194 -4.41014 -14.6858 18.1943 -4.41014 19.3279
9620 1 -16.4978 -3.52152 -13.7968 17.5159 -3.52152 -13.7968
13312 1 -14.8965 -4.38009 -13.4727 19.1172 -4.38009 -13.4727
12818 1 -13.8474 -4.97926 -12.1816 20.1663 -4.97926 -12.1816
2478 1 -11.0865 -6.09974 -15.1158 -11.0865 -6.09974 18.898
1 1 -10.8553 -5.52589 -12.6848 -10.8553 -5.52589 -12.6848
9330 1 -8.88615 -5.86646 -13.0234 25.1276 -5.86646 -13.0234
8984 1 -5.35557 -4.94595 -13.844 -5.35557 -4.94595 -13.844
5601 1 -4.32526 -4.98145 -12.617 -4.32526 -4.98145 -12.617
7702 1 -3.49095 -5.29851 -13.392 -3.49095 -5.29851 20.6217
1606 1 -1.853 -5.50017 -13.2942 -1.853 -5.50017 -13.2942
3078 1 -2.85997 -4.27424 -13.1174 -2.85997 -4.27424 -13.1174
1657 1 -9.48206 -9.04101 -16.5128 -9.48206 -9.04101 -16.5128
1383 1 -15.7529 -3.18677 -14.6463 -15.7529 -3.18677 -14.6463
1941 1 -0.0530817 -2.33247 -16.7258 -0.0530817 -2.33247 -16.7258
11087 1 -13.6356 -4.2261 -14.2221 -13.6356 -4.2261 19.7916
4904 1 -15.3936 -3.01333 -13.2815 -15.3936 -3.01333 -13.2815
5137 1 -12.8927 -4.18948 -12.9158 -12.8927 -4.18948 -12.9158
224 1 -12.4534 -5.31304 -14.1444 -12.4534 -5.31304 -14.1444
2727 1 -11.525 -2.77117 -13.6231 -11.525 -2.77117 -13.6231
1812 1 -10.6337 -3.8475 -12.8538 -10.6337 -3.8475 -12.8538
2138 1 -9.52751 -4.4199 -12.8554 -9.52751 -4.4199 21.1583
9593 1 -7.79717 -4.41331 -13.9487 26.2165 -4.41331 -13.9487
8459 1 -6.64917 -3.98666 -13.6193 -6.64917 -3.98666 -13.6193
3095 1 -5.27617 -3.6634 -12.7251 -5.27617 -3.6634 21.2886
1741 1 -4.11818 -4.33916 -13.9137 -4.11818 -38.3529 -13.9137
8961 1 -3.61082 -3.75133 -12.5598 -3.61082 -3.75133 -12.5598
9145 1 -2.07546 -4.35499 -14.777 -2.07546 -4.35499 -14.777
3970 1 -0.999625 -3.72073 -14.7087 -0.999625 -3.72073 19.305
554 1 -16.0691 -2.06804 -13.2861 -16.0691 -2.06804 -13.2861
4403 1 -12.9547 -2.72335 -13.5813 -12.9547 -2.72335 -13.5813
2585 1 -15.1958 -2.27834 -12.0193 -15.1958 -2.27834 21.9944
2019 1 -14.4865 -1.09007 -12.5293 -14.4865 -1.09007 -12.5293
5897 1 -11.55 -0.496229 -12.9079 -11.55 -0.496229 -12.9079
3124 1 -10.8295 -3.16736 -11.7975 -10.8295 -3.16736 -11.7975
676 1 -9.71043 -1.46126 -12.7199 -9.71043 -1.46126 -12.7199
1617 1 -6.58857 -2.83096 -12.4048 -6.58857 -2.83096 -12.4048
15488 1 -5.59222 -2.13576 -12.9268 28.4215 -2.13576 21.0869
6860 1 -2.96371 -2.69879 -12.6796 -2.96371 -2.69879 21.3341
2003 1 -1.90582 -2.16815 -13.4016 -35.9195 -2.16815 -13.4016
14299 1 -0.231703 -2.25765 -13.7807 -0.231703 -2.25765 -13.7807
1530 1 -15.9859 -2.5196 -8.39382 -15.9859 -36.5333 -8.39382
9079 1 -14.9972 -1.68112 -13.1898 19.0165 -1.68112 -13.1898