ITEM: TIMESTEP
5500
ITEM: NUMBER OF ATOMS
16384
ITEM: BOX BOUNDS pp pp pp
-1.6828627036276380e+01 1.6828627036276380e+01
-1.6828627036276380e+01 1.6828627036276380e+01
-1.6828627036276380e+01 1.6828627036276380e+01
ITEM: ATOMS id type x y z xu yu zu
5975 1 -16.1928 -15.4208 -15.8556 -16.1928 18.2364 -15.8556
1868 1 -14.4499 -16.3949 -16.321 -14.4499 -16.3949 -16.321
15029 1 -13.4082 -16.2784 -16.1341 -13.4082 -16.2784 17.5231
8955 1 -12.4874 -15.6492 -15.4907 21.1698 18.0081 -15.4907
5551 1 -10.7296 -16.234 -16.3295 -10.7296 17.4233 -16.3295
7734 1 -8.64642 -15.1148 -16.2069 -8.64642 18.5425 17.4504
7538 1 -5.47632 -15.9096 -15.8803 -5.47632 17.7477 17.7769
4572 1 -4.1297 -15.4784 -14.9017 -4.1297 18.1788 -14.9017
14054 1 -3.81088 -16.7224 -16.1194 -3.81088 16.9349 -16.1194
3423 1 -2.02168 -15.7457 -16.2851 -2.02168 -15.7457 17.3721
12021 1 -0.403645 -16.5748 -16.4675 -0.403645 -16.5748 17.1897
2080 1 -12.1808 -16.6308 -2.47336 -12.1808 -16.6308 31.1839
469 1 -14.1538 -15.012 -15.8428 -14.1538 -15.012 -15.8428
15615 1 -12.011 -14.1026 -16.0536 -12.011 19.5547 17.6036
7456 1 -9.80492 -15.1891 -15.4906 -9.80492 18.4682 -15.4906
4514 1 -8.34466 -14.4941 -15.3623 -8.34466 19.1632 -15.3623
5100 1 -7.58892 -14.4846 -16.6196 -7.58892 19.1726 -16.6196
8868 1 -6.69413 -15.2563 -15.6502 -6.69413 -15.2563 -15.6502
2126 1 -2.61752 -14.8129 -15.5822 -2.61752 -14.8129 18.0751
5937 1 -0.895448 -15.0139 -16.3529 -0.895448 18.6433 -16.3529
5296 1 -15.1186 -13.361 -16.368 -15.1186 20.2962 -16.368
2051 1 -13.6468 -13.2498 -16.7176 -13.6468 -13.2498 16.9397
2023 1 -11.1943 -0.188182 -11.3938 -11.1943 -0.188182 -11.3938
4743 1 -3.3994 -0.026477 -2.53032 -3.3994 -0.026477 -2.53032
2488 1 -9.77264 -13.9926 -15.8131 -9.77264 -13.9926 17.8441
7042 1 -11.6223 -12.7664 -15.9083 -11.6223 20.8909 17.7489
1812 1 -10.6296 -13.6808 -16.5928 -10.6296 -13.6808 -16.5928
8965 1 -9.02961 -13.1674 -16.5811 24.6276 -13.1674 -16.5811
1535 1 -7.89759 -13.4943 -16.2096 -7.89759 -13.4943 17.4477
2471 1 -6.75867 -13.8901 -16.067 -6.75867 -13.8901 17.5903
12146 1 -4.9521 -14.0987 -16.5394 -4.9521 -14.0987 17.1178
1925 1 -4.5391 -13.3287 -15.8163 -4.5391 -13.3287 -15.8163
9383 1 -3.51859 -13.4606 -16.5578 -3.51859 -13.4606 -16.5578
8719 1 -1.69303 -13.9342 -16.0534 -1.69303 -13.9342 -16.0534
9099 1 -0.580937 -13.4726 -16.5038 -0.580937 -13.4726 -16.5038
10488 1 -15.5172 -12.1963 -16.0005 18.14 21.461 17.6568
1427 1 -0.230942 -16.5145 -4.47919 -0.230942 -16.5145 -4.47919
3519 1 -13.3077 -11.8182 -16.4818 -13.3077 -11.8182 17.1755
2341 1 -11.8469 -11.1325 -16.3276 -11.8469 -11.1325 17.3296
11190 1 -10.7235 -12.0558 -16.5051 -10.7235 -12.0558 17.1521
4665 1 -10.1997 -11.8564 -15.4291 -10.1997 21.8008 -15.4291
1426 1 -7.99987 -12.1625 -16.5414 -7.99987 -12.1625 -16.5414
10749 1 -6.26522 -11.3828 -16.4773 -6.26522 -11.3828 -16.4773
1723 1 -6.55799 -13.0712 -15.191 -6.55799 -13.0712 -15.191
2426 1 -5.36728 -11.9184 -15.1609 -5.36728 -11.9184 18.4964
6174 1 -2.43568 -11.0687 -16.3684 -2.43568 -11.0687 17.2888
9859 1 -2.83127 -12.8188 -15.8554 -2.83127 -12.8188 -15.8554
12696 1 -16.5572 -9.96074 -16.1082 17.1001 23.6965 -16.1082
749 1 -14.8174 -9.22067 -15.4082 -14.8174 -9.22067 -15.4082
9190 1 -15.2474 -10.3174 -16.3247 18.4099 -10.3174 17.3325
179 1 -13.7044 -10.7449 -16.1417 -13.7044 -10.7449 -16.1417
1175 1 -11.995 -10.0833 -15.7128 -11.995 -10.0833 -15.7128
8215 1 -13.4802 -9.68996 -15.4983 -13.4802 23.9673 18.159
6523 1 -9.75198 -9.8541 -16.3941 -9.75198 23.8032 17.2632
2742 1 -8.96193 -10.9424 -16.8394 -8.96193 -10.9424 16.8179
6529 1 -7.86683 -11.1782 -15.7647 -7.86683 -11.1782 17.8926
6275 1 -4.46766 -11.4585 -16.1607 -4.46766 -11.4585 -16.1607
8083 1 -4.94238 -10.2107 -15.5653 -4.94238 -10.2107 18.092
1524 1 -3.89901 -9.95972 -15.7202 -3.89901 -9.95972 -15.7202
7037 1 -2.28924 -9.64067 -15.7264 -2.28924 24.0166 17.9308
3298 1 -0.719897 -10.1374 -16.5184 -0.719897 -10.1374 17.1389
16141 1 -16.5314 -8.48986 -16.0797 17.1258 -8.48986 17.5776
12192 1 -14.3907 -8.20389 -16.7646 19.2665 -8.20389 16.8926
5025 1 -15.001 -8.02354 -15.5521 -15.001 -8.02354 -15.5521
53 1 -13.129 -9.64686 -16.7073 -13.129 -43.3041 -16.7073
12045 1 -13.8754 -8.83018 -16.1335 19.7819 -8.83018 17.5238
808 1 -10.8142 -9.37265 -15.7771 -10.8142 -9.37265 -15.7771
597 1 -8.715 -9.54592 -15.6515 -42.3723 -9.54592 18.0058
7639 1 -6.87602 -9.32939 -16.3994 -6.87602 -9.32939 17.2579
4295 1 -5.81048 -9.14941 -14.7215 -5.81048 -9.14941 -14.7215
10054 1 -4.84161 -8.84601 -15.6012 -4.84161 -8.84601 -15.6012
10961 1 -1.21625 -9.51263 -15.256 -1.21625 -9.51263 18.4013
8415 1 -2.00984 -8.3897 -15.4575 -2.00984 -8.3897 -15.4575
11975 1 -15.9761 -7.46036 -16.4188 17.6811 -7.46036 17.2385
3051 1 -13.569 -7.7486 -15.4966 -13.569 -7.7486 18.1606
13617 1 -12.9437 -8.3621 -16.6176 -12.9437 25.2952 -16.6176
12522 1 -12.4791 -7.44064 -15.7724 -12.4791 -7.44064 -15.7724
8709 1 -11.6408 -8.86006 -16.6001 -11.6408 -8.86006 -16.6001
10321 1 -2.81784 -16.8591 -16.4102 -2.81784 -16.8591 17.2471
1438 1 -9.28243 -8.02013 -15.7703 -9.28243 -8.02013 -15.7703
476 1 -8.56484 -7.64021 -16.4634 -8.56484 -7.64021 -16.4634
15466 1 -6.26878 -0.425847 -4.29652 -6.26878 -0.425847 -4.29652
3889 1 -4.73734 -7.76222 -15.5725 -4.73734 -7.76222 -15.5725
1256 1 -0.78821 -8.06359 -15.9849 -0.78821 -8.06359 -15.9849
6772 1 -15.9265 -6.0063 -16.1832 -15.9265 -6.0063 17.474
6319 1 -14.3146 -6.88951 -15.9632 -14.3146 26.7677 17.6941
2010 1 -13.1201 -6.14221 -16.103 -13.1201 -6.14221 -16.103
16305 1 -11.2924 -6.70425 -16.5505 -11.2924 -6.70425 17.1068
14402 1 -10.8652 -6.67312 -15.426 22.7921 -6.67312 18.2313
1639 1 -9.90368 -6.67429 -16.0846 -9.90368 -6.67429 -16.0846
4995 1 -8.77025 -6.81371 -15.1091 -8.77025 -6.81371 -15.1091
12190 1 -8.50184 -6.30451 -16.4996 -8.50184 -6.30451 17.1577
4715 1 -7.39502 -6.57893 -15.8336 -7.39502 27.0783 -15.8336
6363 1 -2.17931 -16.4191 -15.3527 -2.17931 17.2381 18.3046
9102 1 -6.09196 -6.60446 -16.3778 -6.09196 -6.60446 -16.3778
1481 1 -4.95328 -6.43709 -15.6816 -4.95328 -6.43709 -15.6816
11381 1 -3.19841 -6.76606 -15.8878 30.4588 -6.76606 17.7695
9002 1 -1.84545 -6.45836 -16.5422 -1.84545 -6.45836 -16.5422
12289 1 -0.468231 -6.09628 -15.5705 -0.468231 27.561 18.0867
7992 1 -0.785892 -5.71641 -16.8342 -0.785892 -5.71641 -16.8342
1953 1 -15.5947 -4.58958 -16.3973 -15.5947 -4.58958 -16.3973
3029 1 -12.8725 -5.34991 -15.1832 -12.8725 -5.34991 18.474
6501 1 -14.2605 -4.9623 -15.5829 -14.2605 -4.9623 18.0743
8921 1 -12.5126 -4.95045 -16.1062 -12.5126 -4.95045 -16.1062
4724 1 -11.0855 -4.34523 -16.3416 -11.0855 -4.34523 -16.3416
8616 1 -11.3869 -5.48636 -16.6122 -11.3869 -5.48636 -16.6122
11507 1 -10.1295 -5.4055 -15.8758 23.5278 -5.4055 17.7815
6340 1 -5.94967 -16.5314 -0.627152 -5.94967 17.1258 -0.627152
12218 1 -8.7085 -5.01013 -15.9568 -8.7085 -5.01013 17.7005
5320 1 -6.68879 -5.34825 -16.1539 -6.68879 -5.34825 -16.1539
3832 1 -5.27021 -4.76016 -15.8219 -5.27021 -4.76016 17.8354
6214 1 -4.68221 -5.54943 -16.572 -4.68221 -5.54943 17.0852
5386 1 -3.42253 -5.57495 -15.4854 -3.42253 28.0823 -15.4854
10045 1 -4.02702 -16.5151 -0.988333 -4.02702 -16.5151 -0.988333
1169 1 -1.80221 -5.06388 -15.7852 -1.80221 -5.06388 -15.7852
10490 1 -16.4469 -3.56249 -16.4147 17.2103 -3.56249 17.2425
8940 1 -7.97979 -16.7854 -4.76108 -7.97979 -16.7854 -4.76108
9678 1 -13.7979 -3.67692 -15.4407 19.8593 -3.67692 -15.4407
13690 1 -11.2515 -3.12877 -15.8665 22.4058 -3.12877 -15.8665
15893 1 -12.0292 -3.61867 -16.2815 -12.0292 -3.61867 17.3757
5740 1 -9.83543 -4.09792 -15.5278 -9.83543 -4.09792 -15.5278
2649 1 -9.35018 -3.20647 -16.2533 -9.35018 -3.20647 17.4039
10958 1 -8.08 -2.75668 -15.9167 -8.08 -2.75668 17.7405
4321 1 -6.98312 -4.16332 -15.6233 -6.98312 -4.16332 -15.6233
11181 1 -15.1181 -13.431 -0.807428 18.5391 -13.431 -0.807428
1690 1 -5.63098 -3.66212 -15.9809 -5.63098 -3.66212 -15.9809
10574 1 -3.56449 -4.13413 -15.7132 -3.56449 -4.13413 17.9441
11978 1 -2.04552 -4.09238 -15.1805 -2.04552 -4.09238 18.4768
2049 1 -2.35309 -2.98521 -15.7343 -2.35309 -2.98521 17.9229
7275 1 -1.53897 -3.49834 -16.4575 -1.53897 30.1589 17.1998
13191 1 -0.578412 -2.90439 -15.7489 -0.578412 -2.90439 17.9084
4094 1 -16.4779 -2.70242 -15.8284 -16.4779 -2.70242 -15.8284
10751 1 -14.7145 -1.64728 -16.6925 18.9428 -1.64728 16.9648
2303 1 -13.855 -2.4822 -14.4523 -13.855 -2.4822 19.2049
4349 1 -12.3777 -1.96507 -15.8499 -12.3777 -1.96507 -15.8499
11013 1 -13.3163 -2.68995 -16.0955 20.341 -2.68995 17.5618
7984 1 -11.285 -1.61544 -16.6764 -11.285 32.0418 16.9808
13107 1 -16.2962 -0.252643 -8.26038 17.3611 -0.252643 -8.26038
9756 1 -10.0441 -2.65389 -15.3628 23.6132 -36.3111 -15.3628
13282 1 -9.75368 -2.05332 -16.2231 23.9036 -2.05332 -16.2231
10 1 -6.66344 -2.6312 -16.613 -6.66344 -2.6312 -16.613
2927 1 -8.63545 -1.58317 -16.4645 -8.63545 -35.2404 17.1928
5248 1 -5.74029 -2.64956 -15.7617 -5.74029 -2.64956 -15.7617
2110 1 -6.4761 -1.23925 -16.5733 -6.4761 -1.23925 17.0839
4396 1 -14.2297 -16.5339 -9.19264 -14.2297 17.1234 -9.19264
160 1 -3.51753 -3.20596 -16.4334 -3.51753 -3.20596 -16.4334
5385 1 -2.2885 -2.03923 -16.3109 -2.2885 -2.03923 -16.3109
3413 1 -0.386041 -6.3012 -7.74528 -0.386041 -6.3012 -7.74528
7181 1 -15.4196 -0.917675 -15.3522 -15.4196 -0.917675 -15.3522
4973 1 -16.1081 -1.18634 -16.8171 -16.1081 -1.18634 -16.8171
15279 1 -2.50885 -14.5501 -16.6915 -2.50885 19.1072 16.9657
8128 1 -14.3822 -0.69479 -16.5241 -14.3822 -0.69479 17.1331
13904 1 -12.9995 -0.877171 -15.7643 -12.9995 -0.877171 -15.7643
6485 1 -9.84255 -0.379017 -15.7129 -9.84255 33.2782 17.9444
12420 1 -7.89256 -0.483338 -16.3649 25.7647 -0.483338 -16.3649
16054 1 -10.1272 -1.08143 -16.7231 23.5301 -1.08143 16.9342
7703 1 -6.91051 -0.291504 -15.635 -6.91051 -0.291504 18.0222
5383 1 -4.92781 -0.019995 -16.1819 -4.92781 -0.019995 -16.1819
703 1 -16.7902 -9.704 -2.07389 -16.7902 -9.704 -2.07389
5528 1 -4.02807 -1.05636 -15.9936 -4.02807 -1.05636 -15.9936
6673 1 -2.97011 -1.26973 -16.5337 -2.97011 -1.26973 17.1236
5941 1 -1.39662 -0.373904 -15.7175 -1.39662 -0.373904 -15.7175
15196 1 -16.2959 -15.877 -14.5994 17.3613 17.7803 19.0579
15121 1 -15.0134 -16.2621 -14.4669 18.6439 17.3952 19.1904
2851 1 -13.4191 -16.1369 -13.8128 -13.4191 -16.1369 19.8445
8046 1 -12.0696 -15.2025 -14.215 -12.0696 18.4548 19.4423
9305 1 -11.5475 -16.5079 -14.2011 -11.5475 -16.5079 -14.2011
74 1 -10.3782 -16.2899 -14.998 -10.3782 -16.2899 -14.998
3115 1 -0.75085 -9.52334 -3.98908 -0.75085 -9.52334 -3.98908
6369 1 -8.93331 -15.6037 -14.9693 -8.93331 18.0535 18.6879
472 1 -7.50637 -15.7829 -16.0285 -7.50637 -15.7829 -16.0285
934 1 -7.4781 -15.8595 -14.7952 -7.4781 -15.8595 -14.7952
11648 1 -6.0615 -16.2169 -15.0261 -6.0615 -16.2169 18.6312
6376 1 -4.74728 -16.5397 -14.8389 -4.74728 17.1176 18.8184
5916 1 -5.64644 -15.374 -13.8189 -5.64644 18.2832 -13.8189
12571 1 -1.21271 -15.7875 -14.7818 -1.21271 17.8698 -14.7818
12722 1 -16.2483 -8.07522 -1.89633 17.4089 -8.07522 -1.89633
5476 1 -15.1404 -1.48388 -0.00292011 18.5168 -1.48388 -0.00292011
2372 1 -15.1569 -15.8709 -15.4848 -15.1569 -15.8709 18.1725
1176 1 -16.6759 -14.5454 -14.4725 -16.6759 -14.5454 -14.4725
1924 1 -14.8111 -14.4386 -14.8381 -14.8111 -14.4386 -14.8381
15107 1 -14.0723 -15.7895 -14.6238 19.585 -15.7895 19.0334
8100 1 -12.9309 -14.6419 -15.2749 -46.5881 19.0154 18.3824
3063 1 -12.619 -14.1568 -14.0114 -12.619 -14.1568 19.6458
14882 1 -11.8442 -13.7469 -14.9122 21.813 19.9103 18.745
4054 1 -9.65139 -14.4987 -14.407 -9.65139 -14.4987 19.2503
3127 1 -7.47175 -13.916 -14.7769 -7.47175 -13.916 18.8804
16382 1 -5.67875 -14.8455 -15.2961 -5.67875 18.8117 -15.2961
8669 1 -2.83917 -15.5257 -14.716 -2.83917 -15.5257 -14.716
357 1 -3.73326 -14.4735 -15.7633 -3.73326 -14.4735 -15.7633
9096 1 -1.75124 -15.1109 -14.1175 -1.75124 -15.1109 -14.1175
8540 1 -2.18461 -14.2774 -14.6486 -2.18461 -14.2774 -14.6486
9630 1 -0.925847 -13.7627 -13.8477 -0.925847 -13.7627 -13.8477
2711 1 -4.42218 -9.76906 -16.7729 -38.0794 -9.76906 -16.7729
9415 1 -16.4817 -13.8288 -15.4011 17.1756 -13.8288 -15.4011
15396 1 -15.9145 -13.5682 -14.573 17.7428 20.0891 19.0843
3581 1 -14.2999 -13.2527 -15.8027 -14.2999 -13.2527 17.8545
12827 1 -14.5261 -13.0509 -14.4866 -14.5261 20.6064 -14.4866
767 1 -12.9563 -13.0976 -14.6572 -12.9563 -13.0976 -14.6572
1251 1 -10.6146 -13.0819 -14.4136 -10.6146 20.5753 -14.4136
9435 1 -9.12715 -13.525 -14.6895 24.5301 -13.525 -14.6895
7848 1 -8.01052 -12.6419 -14.0435 -8.01052 21.0154 19.6138
13962 1 -6.49546 -14.5273 -14.469 27.1618 -14.5273 -14.469
8173 1 -4.10046 -13.2921 -14.3813 -4.10046 20.3652 19.276
9433 1 -3.07983 -13.4304 -14.5598 -3.07983 -13.4304 -14.5598
8922 1 -0.0220325 -13.1593 -14.6997 -0.0220325 -13.1593 -14.6997
1431 1 -16.047 -12.4941 -15.1193 -16.047 -12.4941 -15.1193
1978 1 -14.4115 -12.055 -15.3618 -14.4115 -12.055 -15.3618
11606 1 -16.0181 -11.6988 -14.346 17.6391 -11.6988 -14.346
4219 1 -13.3851 -11.9437 -15.2874 -13.3851 21.7136 -15.2874
5720 1 -11.424 -12.3543 -14.6303 -11.424 21.303 -14.6303
1331 1 -12.3561 -10.7734 -13.9425 -12.3561 -10.7734 -13.9425
13813 1 -9.57062 -11.9076 -14.3349 24.0866 21.7497 -14.3349
3722 1 -8.93785 -12.0994 -15.5561 -8.93785 -12.0994 18.1011
1537 1 -6.45252 -11.6437 -15.4536 -6.45252 -11.6437 -15.4536
4147 1 -6.75903 -12.6011 -14.2679 -6.75903 21.0561 -14.2679
8402 1 -5.6833 -13.2163 -14.5204 -5.6833 -13.2163 -14.5204
7644 1 -4.34433 -11.0648 -14.4261 -4.34433 22.5925 19.2311
3551 1 -4.49985 -12.2913 -13.4261 -4.49985 -12.2913 -13.4261
8255 1 -4.17506 -12.1821 -15.1058 -4.17506 -12.1821 -15.1058
9890 1 -2.91325 -11.1771 -15.4714 -2.91325 -11.1771 -15.4714
9896 1 -1.44896 -12.1897 -15.2101 -1.44896 -12.1897 -15.2101
9183 1 -1.07029 -11.7538 -14.0554 -1.07029 -11.7538 -14.0554
8956 1 -0.571755 -11.2882 -16.2547 -0.571755 -11.2882 -16.2547
1375 1 -16.005 -10.7142 -14.8414 -16.005 -10.7142 -14.8414
13271 1 -14.8678 -11.0192 -14.3413 18.7895 22.6381 -14.3413
11856 1 -14.7386 -10.582 -15.3477 18.9187 -10.582 18.3095
6302 1 -13.489 -10.8315 -13.7394 -13.489 22.8258 -13.7394
14478 1 -12.5398 -10.9301 -15.1559 21.1174 22.7272 -15.1559
4235 1 -11.146 -11.263 -14.8038 -11.146 22.3943 18.8534
503 1 -10.4979 -10.4898 -14.7894 -10.4979 -10.4898 -14.7894
1802 1 -9.42243 -10.703 -14.0009 -9.42243 -10.703 -14.0009
7530 1 -9.23002 -11.0276 -15.1172 -9.23002 -11.0276 18.5401
11712 1 -7.78019 -11.6828 -14.7333 25.8771 -11.6828 18.924
1305 1 -7.09947 -10.3079 -15.2702 -7.09947 -10.3079 -15.2702
12016 1 -4.31892 -9.65265 -14.3594 -4.31892 -9.65265 19.2978
5290 1 -5.43469 -10.668 -14.158 -5.43469 -10.668 -14.158
7430 1 -2.73034 -9.66993 -14.7416 -2.73034 -9.66993 18.9157
6944 1 -1.65754 -11.1442 -15.6254 -1.65754 22.513 18.0318
4796 1 -1.85318 -9.45824 -14.1557 -1.85318 -9.45824 -14.1557
995 1 -1.03889 -10.5895 -14.4235 -1.03889 -10.5895 -14.4235
8831 1 -16.5589 -9.67588 -14.8855 17.0984 -9.67588 -14.8855
1152 1 -1.72117 -7.75406 -16.418 -1.72117 -7.75406 17.2393
6982 1 -13.2359 -9.13223 -14.4776 -13.2359 -9.13223 19.1797
5986 1 -12.1562 -9.00285 -15.4899 -12.1562 -9.00285 -15.4899
1536 1 -11.2698 -9.99466 -14.3022 -11.2698 -9.99466 -14.3022
2261 1 -9.64362 -9.1715 -14.7109 -9.64362 -9.1715 18.9463
1760 1 -7.1512 -8.92307 -15.1957 -7.1512 -8.92307 -15.1957
9124 1 -7.81505 -8.98852 -14.4361 -7.81505 -8.98852 -14.4361
751 1 -6.30994 -7.98069 -13.6251 -6.30994 -7.98069 -13.6251
3074 1 -6.2394 -9.79762 -13.4087 -6.2394 -9.79762 20.2486
4807 1 -4.92765 -9.15493 -13.5482 -4.92765 24.5023 -13.5482
11149 1 -3.07883 -8.78139 -15.4011 -3.07883 -8.78139 18.2562
13517 1 -3.11307 -8.95054 -13.7618 -3.11307 24.7067 -13.7618
7070 1 -1.16584 -8.79187 -13.7189 -1.16584 -8.79187 19.9383
15709 1 -0.144233 -9.5956 -15.8851 -0.144233 24.0616 -15.8851
4007 1 -16.2463 -8.17318 -14.6558 -16.2463 -8.17318 19.0015
335 1 -15.3463 -8.02571 -13.4399 -15.3463 -8.02571 -13.4399
2623 1 -15.2564 -7.03086 -15.2816 -15.2564 -7.03086 18.3756
15275 1 -14.5878 -8.2805 -14.41 19.0695 -8.2805 19.2473
14935 1 -13.0191 -7.51395 -14.5904 -13.0191 -7.51395 19.0668
2611 1 -11.4266 -7.51647 -14.5283 -11.4266 -7.51647 19.1289
480 1 -10.4072 -8.12558 -15.0287 -10.4072 -8.12558 -15.0287
11538 1 -8.8173 -8.35172 -14.8095 24.8399 -8.35172 18.8478
12503 1 -8.07669 -8.63359 -15.8912 25.5806 25.0237 -15.8912
1843 1 -7.14609 -7.67956 -14.6645 -7.14609 -7.67956 -14.6645
7366 1 -6.89061 -7.80205 -16.102 -6.89061 -7.80205 17.5552
11584 1 -6.06527 -7.63283 -15.0852 -6.06527 -7.63283 18.572
3004 1 -3.04296 -7.49532 -15.0565 -3.04296 -7.49532 18.6007
1895 1 -4.08107 -8.37833 -14.5988 -4.08107 -8.37833 -14.5988
2324 1 -1.94225 -7.36312 -14.2935 -1.94225 -7.36312 19.3638
2250 1 -1.40294 -7.06006 -15.5096 -1.40294 -7.06006 18.1476
5261 1 -0.417218 -8.35942 -14.7232 -0.417218 -8.35942 -14.7232
8500 1 -15.8074 -6.95915 -13.6602 17.8499 -6.95915 -13.6602
10344 1 -13.3078 -7.22034 -16.6425 20.3494 -7.22034 17.0147
11112 1 -14.4913 -6.84769 -14.2478 19.1659 -6.84769 19.4095
6334 1 -12.1453 -6.65743 -14.6594 -12.1453 -6.65743 18.9979
3405 1 -10.097 -6.80988 -14.5703 -10.097 -6.80988 19.0869
2873 1 -9.0298 -5.66916 -15.1599 -9.0298 -5.66916 18.4974
8056 1 -7.39437 -5.12672 -15.3675 -7.39437 -5.12672 18.2897
2736 1 -7.93999 -6.83308 -14.4256 -7.93999 -6.83308 19.2316
14616 1 -6.4613 -6.47904 -14.9859 -6.4613 -6.47904 18.6713
2185 1 -5.49228 -6.30649 -13.854 -5.49228 -6.30649 19.8032
8505 1 -3.84246 -6.82332 -14.7513 -3.84246 -6.82332 -14.7513
1625 1 -2.38733 -6.37605 -15.2934 -2.38733 -6.37605 -15.2934
7403 1 -11.8268 -6.3022 -0.182764 -11.8268 -6.3022 -0.182764
13260 1 -16.7869 -4.86963 -15.8063 16.8703 28.7876 -15.8063
10069 1 -14.8144 -4.85624 -14.6256 18.8429 -4.85624 -14.6256
15950 1 -15.3477 -5.44586 -15.4292 18.3096 -5.44586 18.228
9339 1 -13.6822 -5.15059 -14.2715 19.9751 -5.15059 -14.2715
3070 1 -11.4804 -4.93331 -15.3058 -11.4804 -4.93331 18.3515
914 1 -10.7061 -4.47645 -14.6954 -10.7061 -4.47645 -14.6954
205 1 -8.04107 -5.10751 -13.9741 -8.04107 -5.10751 -13.9741
12350 1 -6.90571 -5.0202 -13.9184 -6.90571 28.6371 -13.9184
621 1 -6.18416 -4.44843 -14.9836 -6.18416 -4.44843 -14.9836
2117 1 -4.02558 -4.59668 -14.8991 -4.02558 -4.59668 -14.8991
3130 1 -4.69303 -5.30285 -14.5954 -4.69303 -5.30285 19.0619
15509 1 -2.79453 -4.98841 -14.298 -2.79453 -4.98841 19.3593
1798 1 -1.66065 -5.65555 -14.4428 -1.66065 -5.65555 -14.4428
1135 1 -0.668417 -4.90364 -15.2495 -0.668417 -4.90364 -15.2495
4711 1 -16.019 -4.41668 -14.7401 -16.019 29.2406 -14.7401
3468 1 -15.0662 -3.45336 -15.2643 -15.0662 -3.45336 18.393
1894 1 -14.0521 -4.18235 -13.9021 -14.0521 -4.18235 -13.9021
4789 1 -12.7494 -4.02758 -14.5836 -12.7494 -4.02758 -14.5836
5178 1 -11.2564 -3.02349 -14.7034 -11.2564 -3.02349 -14.7034
1589 1 -8.88664 -3.98567 -15.1324 -8.88664 -3.98567 -15.1324
15923 1 -10.0526 -5.22508 -14.2565 23.6047 -5.22508 19.4008
1866 1 -7.21808 -3.55495 -14.6915 -7.21808 -3.55495 -14.6915
22 1 -8.75665 -3.50104 -13.8465 -8.75665 -3.50104 -13.8465
4205 1 -5.08062 -2.61868 -14.4548 -5.08062 31.0386 -14.4548
16068 1 -4.48905 -3.59724 -14.1967 29.1682 -3.59724 -14.1967
4691 1 -2.78994 -3.55807 -14.2063 -2.78994 -3.55807 -14.2063
1702 1 -1.81224 -3.73591 -13.7252 -1.81224 -3.73591 -13.7252
13563 1 -1.63079 -1.97568 -14.8014 -1.63079 -1.97568 -14.8014
11310 1 -1.01534 -4.07612 -14.5566 -1.01534 -37.7334 19.1006
13519 1 -11.8535 -16.6287 -10.0929 21.8037 17.0285 -10.0929
5094 1 -15.6236 -2.24901 -15.4337 -15.6236 -2.24901 -15.4337
12386 1 -15.3025 -2.27384 -14.3446 18.3547 -2.27384 -14.3446
9133 1 -12.53 -2.79848 -14.4557 21.1272 -2.79848 -14.4557
9429 1 -11.3692 -1.69481 -14.1386 22.2881 -35.3521 -14.1386
13678 1 -10.2132 -1.71664 -14.5731 -10.2132 -1.71664 -14.5731
11676 1 -9.54933 -0.85258 -14.8353 24.1079 -0.85258 18.822
4597 1 -8.86565 -2.58266 -14.91 -8.86565 -2.58266 -14.91
2505 1 -6.67589 -2.60538 -15.2722 -6.67589 -2.60538 18.385
696 1 -7.20242 -1.53449 -14.8226 -7.20242 -1.53449 -14.8226
324 1 -4.0029 -2.6464 -14.0458 -4.0029 -2.6464 -14.0458
4522 1 -3.84409 -2.89333 -15.4423 -3.84409 -2.89333 -15.4423
573 1 -2.49316 -1.81391 -15.3451 -2.49316 -1.81391 -15.3451
8716 1 -0.358024 -1.71492 -15.8102 -0.358024 -1.71492 -15.8102
4875 1 -15.8359 -0.158863 -14.259 -15.8359 -0.158863 -14.259
4082 1 -14.0656 -0.448525 -15.2038 -14.0656 -0.448525 -15.2038
1023 1 -13.1341 -1.5371 -15.0111 -13.1341 -1.5371 -15.0111
5616 1 -11.6069 -0.656866 -15.0274 -11.6069 -0.656866 -15.0274
5666 1 -10.3123 -0.549532 -13.1311 -10.3123 -0.549532 -13.1311
3161 1 -11.5079 -0.511591 -16.6432 -11.5079 -0.511591 17.0141
8824 1 -9.30921 -0.0146919 -14.1136 -9.30921 -0.0146919 -14.1136
4345 1 -8.16266 -1.38412 -15.2861 -8.16266 -1.38412 -15.2861
4215 1 -16.7172 -4.49899 -2.35241 -16.7172 -4.49899 -2.35241
6851 1 -5.60399 -1.35525 -15.0825 -5.60399 -1.35525 18.5748
14637 1 -4.61274 -1.7156 -14.7025 -4.61274 -1.7156 -14.7025
12204 1 -3.52592 -0.165277 -14.9294 -3.52592 -0.165277 -14.9294
7424 1 -2.60578 -0.756588 -15.6367 -2.60578 32.9007 18.0206
46 1 -0.948105 -0.917178 -14.316 -0.948105 -0.917178 -14.316
6965 1 -16.6972 -15.2855 -13.6662 -16.6972 18.3717 19.9911
2429 1 -15.6363 -16.6397 -13.4194 -15.6363 -16.6397 20.2378
9308 1 -15.3069 -15.2628 -12.244 18.3503 -15.2628 -12.244
9535 1 -14.5158 -15.6692 -12.8414 19.1415 -15.6692 -12.8414
11146 1 -14.8259 -15.2263 -13.7315 18.8314 -15.2263 19.9257
8767 1 -13.5287 -16.2893 -12.6182 20.1285 -16.2893 -12.6182
2624 1 -11.8389 -16.2046 -16.5093 -11.8389 -16.2046 17.148
15758 1 -12.2866 -16.0193 -13.0924 21.3706 17.638 -13.0924
1171 1 -10.5668 -15.603 -13.4886 -44.2241 -15.603 -13.4886
11325 1 -11.0211 -15.535 -12.4258 22.6362 -15.535 21.2315
3110 1 -10.0205 -14.9613 -12.658 -10.0205 -14.9613 20.9992
828 1 -8.80944 -15.8765 -12.8207 -8.80944 -15.8765 -12.8207
1743 1 -8.09883 -15.6519 -13.7825 -8.09883 -15.6519 -13.7825
1968 1 -6.33396 -16.2124 -13.5325 -6.33396 -16.2124 -13.5325
7646 1 -7.66731 -14.7977 -13.2409 -7.66731 18.8595 20.4164
8379 1 -0.0248756 -14.5152 -5.08633 -0.0248756 -14.5152 -5.08633
15663 1 -3.83584 -15.9761 -13.2817 29.8214 17.6811 20.3755
6349 1 -4.03533 -16.7198 -11.7448 -4.03533 16.9375 -11.7448
14851 1 -6.96509 -3.96818 -16.7992 -6.96509 -3.96818 16.858
6597 1 -2.31114 -15.9756 -13.1356 -2.31114 17.6816 20.5217
14239 1 -1.30411 -15.7766 -13.1212 -1.30411 17.8807 -13.1212
11303 1 -15.994 -12.6119 -0.290964 17.6632 -12.6119 -0.290964
13955 1 -16.6248 -14.5332 -12.9161 17.0325 19.1241 -12.9161
10007 1 -15.0324 -14.1081 -13.5825 18.6248 -14.1081 -13.5825
761 1 -13.6467 -15.1023 -13.3602 -13.6467 -15.1023 -13.3602
1290 1 -11.594 -14.5758 -12.9055 -11.594 -14.5758 -12.9055
9845 1 -10.6136 -14.3418 -14.0703 23.0436 -14.3418 -14.0703
336 1 -8.83319 -14.0366 -13.3431 -8.83319 -14.0366 -13.3431
5388 1 -6.19681 -13.7846 -13.4206 -6.19681 19.8727 -13.4206
10691 1 -4.26869 -14.7245 -12.4112 29.3886 -14.7245 21.2461
5700 1 -4.6981 -14.8546 -14.0882 -4.6981 18.8027 -14.0882
1814 1 -3.06395 -15.0127 -13.2437 -3.06395 -15.0127 -13.2437
12351 1 -2.49439 -13.956 -13.4502 31.1629 19.7013 -13.4502
3482 1 -0.796039 -14.322 -12.8709 -0.796039 19.3352 20.7863
2399 1 -16.1742 -13.592 -12.9735 -16.1742 -13.592 20.6837
1740 1 -14.3397 -13.0962 -12.8052 19.3175 -13.0962 -12.8052
6879 1 -15.2905 -12.6762 -13.4032 -15.2905 20.9811 20.254
7900 1 -13.502 -13.9553 -12.9432 -13.502 19.702 20.7141
15064 1 -11.9162 -13.5258 -12.9523 21.741 -13.5258 20.7049
13957 1 -10.6069 -12.71 -13.3554 23.0503 20.9473 -13.3554
8850 1 -9.96118 -13.6688 -12.7853 23.6961 -13.6688 -12.7853
523 1 -7.60906 -13.5895 -13.4199 -7.60906 -13.5895 -13.4199
10676 1 -7.44482 -12.4325 -12.8141 -7.44482 -12.4325 -12.8141
5217 1 -4.98212 -13.834 -13.7875 -4.98212 19.8232 -13.7875
5159 1 -3.89808 -14.1118 -13.7301 -3.89808 19.5455 -13.7301
4680 1 -1.79999 -12.8709 -13.9101 -1.79999 20.7863 -13.9101
4720 1 -2.5916 -12.8107 -13.0548 -2.5916 20.8466 -13.0548
15834 1 -0.531064 -12.6933 -12.9761 -0.531064 -12.6933 20.6812
6381 1 -16.3024 -12.2721 -12.7772 -16.3024 21.3851 20.88
849 1 -14.5321 -11.9598 -14.2703 -14.5321 -11.9598 -14.2703
10172 1 -13.5163 -11.9662 -13.4706 20.1409 -11.9662 -13.4706
8786 1 -12.5424 -11.8638 -13.9839 21.1149 -11.8638 -13.9839
10492 1 -12.251 -11.8536 -12.4534 21.4062 -11.8536 21.2038
5923 1 -11.3377 -11.7103 -13.5935 -11.3377 -11.7103 -13.5935
1435 1 -9.76042 -11.9834 -13.0726 -9.76042 -11.9834 -13.0726
1461 1 -8.6694 -11.7858 -13.0409 -8.6694 -11.7858 -13.0409
951 1 -5.53742 -12.5302 -13.2258 -5.53742 -12.5302 -13.2258
8860 1 -4.80021 -13.1573 -12.3645 -4.80021 -13.1573 -12.3645
5990 1 -3.20358 -10.8218 -14.5914 -3.20358 -10.8218 -14.5914
3683 1 -3.66079 -11.6557 -13.4133 -3.66079 -11.6557 20.244
12009 1 -2.71309 -11.911 -14.4741 -2.71309 -11.911 19.1831
10111 1 -1.57289 -11.8865 -12.8607 -1.57289 -11.8865 -12.8607
44 1 -15.4819 -14.4958 -15.5699 -15.4819 -14.4958 18.0873
2548 1 -15.5532 -10.084 -13.2555 -15.5532 -10.084 20.4017
7931 1 -15.9822 -11.1008 -12.1015 -15.9822 22.5565 21.5558
14266 1 -16.55 -10.8436 -13.8233 17.1073 22.8137 -13.8233
10043 1 -14.5565 -10.6381 -13.181 19.1008 -10.6381 -13.181
12587 1 -12.5137 -10.9067 -12.6272 21.1436 -10.9067 -12.6272
4852 1 -11.2887 -9.98649 -12.5369 -11.2887 23.6708 -12.5369
11919 1 -10.4042 -10.6792 -13.4053 23.253 -10.6792 20.252
733 1 -8.30143 -10.779 -14.0133 -8.30143 -10.779 -14.0133
2147 1 -9.10609 -9.87289 -13.1057 -9.10609 -9.87289 20.5516
10984 1 -8.01932 -10.4122 -12.5549 25.6379 -10.4122 21.1024
8036 1 -6.88348 -11.5633 -13.8236 -6.88348 22.0939 19.8337
6994 1 -4.35858 -10.4473 -13.3373 -4.35858 -10.4473 20.3199
6378 1 -2.79553 -10.2235 -13.536 -2.79553 -10.2235 20.1212
8804 1 -1.54019 -10.6165 -12.8876 -1.54019 -10.6165 -12.8876
6416 1 -4.37682 -15.1181 -16.2416 -4.37682 18.5392 17.4156
12056 1 -14.9993 -9.23051 -13.7753 -14.9993 -9.23051 19.882
2361 1 -14.989 -9.07034 -12.7742 -14.989 -9.07034 20.8831
3528 1 -13.7782 -9.65435 -12.842 -13.7782 -9.65435 -12.842
740 1 -12.2479 -9.43098 -13.8179 -12.2479 -9.43098 -13.8179
899 1 -10.0871 -9.2748 -13.1622 -10.0871 -9.2748 -13.1622
3061 1 -8.89995 -8.67584 -13.5902 -8.89995 -8.67584 20.067
12283 1 -7.43523 -9.87219 -13.7345 -7.43523 -9.87219 19.9228
1017 1 -5.3538 -9.02102 -12.5684 -5.3538 -9.02102 -12.5684
15516 1 -3.54132 -9.83678 -12.5125 30.1159 -9.83678 21.1448
4581 1 -2.01823 -9.06782 -12.9014 -2.01823 -9.06782 -12.9014
7279 1 -0.48263 -10.148 -13.5434 -0.48263 -10.148 -13.5434
9231 1 -1.10412 -5.65184 -0.45838 32.5531 -5.65184 -0.45838
8057 1 -14.6769 -7.81239 -12.5733 -14.6769 -7.81239 -12.5733
12226 1 -13.1454 -7.94076 -12.742 -13.1454 -7.94076 20.9153
13798 1 -13.2591 -8.33737 -13.8036 20.3982 25.3199 -13.8036
192 1 -11.8617 -8.52986 -12.8498 -11.8617 -8.52986 -12.8498
2398 1 -12.1233 -7.17819 -13.6585 -12.1233 -7.17819 19.9988
5423 1 -10.9065 -8.67996 -13.8481 -10.9065 -8.67996 -13.8481
12169 1 -10.6114 -7.09408 -13.4388 -10.6114 -7.09408 -13.4388
6929 1 -10.6783 -8.40513 -12.3701 -10.6783 -8.40513 -12.3701
2801 1 -9.25794 -7.55662 -12.6275 -9.25794 -7.55662 21.0297
5155 1 -7.39929 -7.4453 -13.5711 -7.39929 26.212 -13.5711
909 1 -7.69237 -7.84573 -12.6519 -7.69237 -7.84573 -12.6519
310 1 -5.48867 -7.78382 -12.785 -5.48867 -7.78382 -12.785
10259 1 -4.92079 -7.95808 -14.1064 -4.92079 -7.95808 -14.1064
9368 1 -4.14673 -7.00014 -13.6117 -4.14673 -7.00014 -13.6117
8172 1 -3.81987 -8.47581 -13.04 -3.81987 -8.47581 -13.04
12840 1 -3.02854 -7.04101 -13.1061 -3.02854 26.6162 -13.1061
797 1 -1.69351 -7.70152 -13.1942 -1.69351 -7.70152 -13.1942
12340 1 -0.452577 -7.28802 -13.8195 -0.452577 -7.28802 19.8378
97 1 -13.8919 -6.465 -12.8983 -13.8919 -6.465 -12.8983
9991 1 -14.9887 -6.20238 -12.6921 18.6685 -6.20238 -12.6921
12159 1 -13.5552 -6.44413 -14.2942 -13.5552 -6.44413 19.3631
741 1 -9.21222 -6.19316 -13.8636 -9.21222 -6.19316 -13.8636
13950 1 -7.51092 -6.2915 -13.2485 -7.51092 -6.2915 -13.2485
1590 1 -5.3057 -5.24674 -13.3668 -5.3057 -5.24674 -13.3668
4172 1 -6.54065 -6.50452 -13.805 -6.54065 27.1527 -13.805
13632 1 -5.91038 -6.75604 -12.8048 -5.91038 -6.75604 -12.8048
4566 1 -3.31454 -5.73352 -13.217 -3.31454 27.9237 -13.217
13477 1 -1.15414 -6.31359 -13.397 -1.15414 27.3437 -13.397
13161 1 -0.718474 -7.18426 -12.1275 -0.718474 -7.18426 -12.1275
4176 1 -15.8361 -5.50887 -13.6296 -15.8361 -5.50887 -13.6296
5279 1 -14.4359 -5.17293 -12.9188 -14.4359 -5.17293 -12.9188
4346 1 -15.3891 -4.43181 -13.8728 -15.3891 -4.43181 -13.8728
5522 1 -13.176 -4.80391 -12.0596 -13.176 -4.80391 -12.0596
10037 1 -12.9777 -4.93343 -13.4257 -12.9777 -4.93343 -13.4257
8524 1 -11.6851 -5.43378 -14.15 21.9722 -5.43378 -14.15
3363 1 -11.7481 -5.73631 -12.803 -11.7481 -5.73631 20.8543
8097 1 -10.3628 -4.90314 -12.8216 -10.3628 -4.90314 20.8356
1975 1 -9.42205 -5.25456 -13.4823 -9.42205 -5.25456 -13.4823
570 1 -7.5775 -3.97526 -13.4621 -7.5775 -3.97526 -13.4621
5013 1 -8.0989 -5.05985 -12.4778 -8.0989 -5.05985 -12.4778
1408 1 -5.73401 -3.74669 -14.3456 -5.73401 -3.74669 -14.3456
5563 1 -4.62484 -4.59711 -12.7633 -4.62484 -4.59711 -12.7633
13603 1 -6.2475 -4.32343 -13.0819 -6.2475 -4.32343 -13.0819
9673 1 -3.25886 -4.3462 -13.2761 -3.25886 -4.3462 -13.2761
10824 1 -2.3058 -5.78329 -13.2273 -2.3058 -5.78329 20.43
1806 1 -2.16194 -10.5882 -0.140409 -2.16194 -10.5882 -0.140409
8131 1 -1.1029 -4.94666 -13.3715 -1.1029 -4.94666 -13.3715
8657 1 -7.96811 -14.1422 -0.312111 -7.96811 -14.1422 -0.312111
13163 1 -16.3673 -3.11614 -13.5599 17.29 -3.11614 -13.5599
7670 1 -14.0422 -3.49983 -12.7691 -14.0422 -3.49983 20.8882
12427 1 -15.3698 -3.63584 -13.1602 18.2875 -3.63584 -13.1602
392 1 -12.9933 -3.54103 -13.0571 -12.9933 -3.54103 -13.0571
8744 1 -11.8153 -4.29028 -13.388 21.842 -4.29028 -13.388
6 1 -10.397 -3.74696 -14.0219 -10.397 -3.74696 -14.0219
2264 1 -9.44206 -4.13036 -13.1543 -9.44206 -4.13036 20.5029
1032 1 -8.70063 -2.57518 -12.9363 -8.70063 -2.57518 -12.9363
1648 1 -6.54932 -2.78926 -13.8099 -6.54932 -2.78926 -13.8099
13501 1 -4.48235 -3.63731 -13.0968 -4.48235 -3.63731 -13.0968
9111 1 -3.12764 -2.90092 -13.1487 -3.12764 -2.90092 -13.1487
287 1 -0.876516 -3.65343 -13.1062 -0.876516 30.0038 -13.1062
13956 1 -16.0418 -1.36255 -13.0134 17.6155 -1.36255 -13.0134
13423 1 -16.273 -2.00957 -14.0291 17.3842 -2.00957 -14.0291