ITEM: TIMESTEP
8000
ITEM: NUMBER OF ATOMS
16384
ITEM: BOX BOUNDS pp pp pp
-1.6828627036276380e+01 1.6828627036276380e+01
-1.6828627036276380e+01 1.6828627036276380e+01
-1.6828627036276380e+01 1.6828627036276380e+01
ITEM: ATOMS id type x y z xu yu zu
1421 1 -16.6988 -16.1683 -15.7958 -16.6988 -16.1683 -15.7958
2372 1 -13.6013 -15.6427 -16.1115 -13.6013 -15.6427 17.5458
7833 1 -11.4064 -15.4763 -16.3582 -11.4064 18.181 17.2991
6190 1 -12.6836 -14.6459 -16.346 -12.6836 19.0113 17.3112
6369 1 -9.00422 -15.5902 -16.5555 -9.00422 18.0671 17.1017
5342 1 -6.53382 -15.3488 -16.4175 -6.53382 18.3084 -16.4175
1497 1 -7.99845 -15.3717 -15.7166 -7.99845 -15.3717 -15.7166
2561 1 -6.16606 -16.4261 -15.2013 -6.16606 -16.4261 18.456
993 1 -0.369744 -3.75492 -7.26803 -0.369744 -3.75492 -7.26803
8260 1 -2.91353 -14.5777 -16.3168 -2.91353 -14.5777 -16.3168
3423 1 -1.68001 -15.2883 -15.4233 -1.68001 -15.2883 18.2339
10161 1 -7.2104 -16.4026 -14.9524 26.4469 -16.4026 -14.9524
13252 1 -3.25436 -16.1666 -5.48735 -3.25436 17.4907 -5.48735
2354 1 -1.35157 -16.6471 -16.3926 -1.35157 -16.6471 17.2646
44 1 -15.2599 -15.3189 -15.864 -15.2599 -15.3189 17.7933
3581 1 -13.9678 -14.3439 -15.8584 -13.9678 -14.3439 17.7988
8662 1 -10.1415 -15.4502 -16.049 23.5157 -15.4502 -16.049
8965 1 -11.2288 -15.3882 -14.9085 22.4285 -15.3882 -14.9085
7456 1 -9.87942 -14.2514 -14.8296 -9.87942 19.4059 -14.8296
472 1 -7.58381 -14.3025 -16.476 -7.58381 -14.3025 -16.476
1723 1 -6.26054 -14.153 -15.5159 -6.26054 -14.153 -15.5159
13447 1 -3.51811 -14.0362 -15.2008 30.1391 19.6211 -15.2008
12146 1 -5.57293 -15.4177 -15.6565 -5.57293 -15.4177 18.0008
11421 1 -1.8857 -5.59233 -16.0796 31.7716 -5.59233 17.5776
12899 1 -9.32463 -16.5688 -10.1659 -9.32463 17.0885 -10.1659
3649 1 -14.8853 -14.0149 -15.2384 -14.8853 -14.0149 18.4188
2051 1 -13.6883 -12.6002 -16.7041 -13.6883 -12.6002 16.9531
7042 1 -13.278 -12.9037 -15.2772 -13.278 20.7535 18.38
15615 1 -12.953 -13.7231 -16.043 -12.953 19.9342 17.6143
3722 1 -9.97501 -12.43 -15.9195 -9.97501 -12.43 17.7378
7530 1 -11.0206 -13.5696 -16.1042 -11.0206 -13.5696 17.553
7734 1 -9.9015 -13.5258 -16.5448 -9.9015 20.1315 17.1125
1535 1 -8.87486 -13.8358 -15.4148 -8.87486 -13.8358 18.2425
4687 1 -6.57834 -13.2549 -16.5525 -6.57834 20.4024 -16.5525
9383 1 -5.17211 -13.9636 -15.6584 -5.17211 -13.9636 -15.6584
9859 1 -4.95846 -12.4817 -16.6274 -4.95846 -12.4817 -16.6274
1293 1 -7.07661 -8.79555 -16.0905 -7.07661 -8.79555 -16.0905
6944 1 -1.90429 -12.3981 -15.7136 -1.90429 21.2591 17.9436
14411 1 -6.26631 -16.639 -2.04465 -6.26631 17.0182 -2.04465
9432 1 -0.563185 -13.0225 -16.3572 -0.563185 -13.0225 -16.3572
12420 1 -7.08845 -0.815363 -16.036 26.5688 -0.815363 -16.036
13271 1 -16.1648 -11.6008 -15.1217 17.4925 22.0565 -15.1217
13261 1 -1.4428 -0.0530668 -16.6646 -1.4428 33.6042 -16.6646
179 1 -12.607 -12.8531 -16.8126 -12.607 -12.8531 -16.8126
15631 1 -16.2316 -7.8991 -14.7946 17.4256 25.7582 18.8627
4235 1 -11.8854 -12.4331 -15.8409 -11.8854 21.2242 17.8163
4859 1 -8.52133 -11.5333 -16.0616 -8.52133 22.124 -16.0616
6529 1 -7.71034 -13.524 -15.6646 -7.71034 -13.524 17.9926
4817 1 -6.47464 -12.5745 -15.3233 -6.47464 21.0827 -15.3233
6275 1 -5.31528 -12.3699 -15.535 -5.31528 -12.3699 -15.535
8255 1 -3.04028 -12.3233 -15.1121 -3.04028 -12.3233 -15.1121
7740 1 -3.41032 -0.979021 -1.16331 -3.41032 -0.979021 -1.16331
9099 1 -0.279164 -11.276 -16.7267 -0.279164 -11.276 -16.7267
9190 1 -15.7556 -10.8612 -15.7401 17.9016 -10.8612 17.9172
12045 1 -14.6689 -10.8976 -16.1786 18.9884 -10.8976 17.4787
5101 1 -14.7314 -12.6331 -16.0992 -14.7314 -12.6331 -16.0992
603 1 -13.504 -10.2458 -16.385 -13.504 -10.2458 -16.385
6035 1 -16.7065 -8.91918 -2.94199 -16.7065 -8.91918 -2.94199
5503 1 -11.5291 -9.69495 -15.8837 -11.5291 23.9623 -15.8837
503 1 -11.1619 -11.3039 -16.113 -11.1619 -11.3039 -16.113
9790 1 -6.90101 -11.4985 -15.9775 -6.90101 -11.4985 -15.9775
13414 1 -10.3917 -16.7292 -5.57038 23.2655 16.9281 -5.57038
7644 1 -3.32333 -11.652 -16.5964 -3.32333 22.0053 17.0609
9890 1 -1.0331 -10.9873 -15.4434 -1.0331 -10.9873 -15.4434
1106 1 -15.244 -16.6536 -11.0576 -15.244 -16.6536 -11.0576
995 1 -1.91009 -10.0439 -15.263 -1.91009 -10.0439 -15.263
4114 1 -15.8099 -16.0305 -2.57354 -15.8099 17.6267 -2.57354
536 1 -6.00761 -0.382267 -11.8258 -6.00761 -34.0395 -11.8258
10684 1 -15.9999 -9.03152 -15.6194 17.6574 -9.03152 18.0379
5025 1 -14.7105 -8.68886 -15.1844 -14.7105 -8.68886 -15.1844
15275 1 -13.3303 -8.67611 -15.1801 20.327 -8.67611 18.4772
5986 1 -13.063 -9.77537 -14.7991 -13.063 -9.77537 -14.7991
1175 1 -11.9161 -8.11024 -16.6254 -11.9161 -8.11024 -16.6254
6523 1 -9.80708 -9.90617 -15.9297 -9.80708 23.7511 17.7276
13665 1 -0.232631 -15.5271 -15.8834 -0.232631 18.1302 -15.8834
12503 1 -8.94438 -9.10943 -16.3656 24.7129 24.5478 -16.3656
1438 1 -10.2542 -8.84014 -15.4381 -10.2542 -8.84014 -15.4381
10949 1 -9.83071 -8.00143 -16.7007 23.8265 -8.00143 16.9566
2214 1 -6.37242 -9.64214 -15.2679 -6.37242 -9.64214 18.3894
4995 1 -7.93692 -8.14539 -15.3489 -7.93692 -8.14539 -15.3489
7591 1 -13.2271 -0.312847 -8.65244 -13.2271 -0.312847 25.0048
7639 1 -5.59183 -8.95572 -16.8838 -5.59183 -8.95572 16.7734
1524 1 -3.90646 -10.1161 -15.656 -3.90646 -10.1161 -15.656
8288 1 -2.36396 -16.764 -5.50694 31.2933 -16.764 -5.50694
8415 1 -0.497519 -8.84826 -15.112 -0.497519 -8.84826 -15.112
11680 1 -4.52101 -13.4286 -16.4221 -4.52101 -13.4286 17.2351
11975 1 -14.8572 -7.87388 -16.7408 18.8001 -7.87388 16.9165
3072 1 -8.48629 -3.91732 -0.0955148 -8.48629 -3.91732 -0.0955148
4034 1 -13.5879 -8.33141 -16.4758 -13.5879 -8.33141 17.1815
12522 1 -11.2911 -7.80235 -15.5836 -11.2911 -7.80235 -15.5836
8155 1 -14.4487 -0.430279 -15.4394 -14.4487 -0.430279 18.2179
4715 1 -7.50213 -8.66152 -14.2284 -7.50213 24.9957 -14.2284
2736 1 -8.74557 -7.59166 -16.3881 -8.74557 -7.59166 17.2692
7366 1 -7.71943 -7.60887 -16.697 -7.71943 -7.60887 16.9602
8503 1 -6.30634 -7.68423 -15.7286 -6.30634 -7.68423 -15.7286
1895 1 -5.10255 -7.80189 -16.465 -5.10255 -7.80189 -16.465
11381 1 -2.92864 -9.6213 -14.9903 30.7286 -9.6213 18.6669
1481 1 -4.40967 -7.42778 -15.3083 -4.40967 -7.42778 -15.3083
1152 1 -1.43568 -6.50747 -15.7423 -1.43568 -6.50747 17.9149
1884 1 -1.68821 -7.83216 -16.4264 -1.68821 -7.83216 -16.4264
791 1 -15.0932 -5.29846 -15.6773 -15.0932 -5.29846 -15.6773
1912 1 -12.9576 -6.50448 -15.196 -12.9576 -6.50448 -15.196
2010 1 -12.5057 -7.36092 -16.0013 -12.5057 -7.36092 -16.0013
8616 1 -11.8994 -5.92722 -16.7072 -11.8994 -5.92722 -16.7072
8921 1 -12.2368 -5.31814 -15.3171 -12.2368 -5.31814 -15.3171
7239 1 -10.5258 -6.6103 -15.6681 -10.5258 27.047 17.9891
16305 1 -9.36273 -5.64647 -15.487 -9.36273 -5.64647 18.1702
12190 1 -8.37185 -6.17289 -14.8153 -8.37185 -6.17289 18.842
12750 1 -15.519 -0.145757 -2.47212 18.1383 -0.145757 -2.47212
9471 1 -16.2678 -7.27427 -5.18412 -16.2678 -7.27427 -5.18412
2185 1 -5.37161 -6.48511 -16.5171 -5.37161 -6.48511 17.1401
5386 1 -2.90286 -5.98894 -15.7668 -2.90286 27.6683 -15.7668
2250 1 -3.10971 -7.49667 -16.0405 -3.10971 -7.49667 17.6168
14925 1 -16.6721 -0.358875 -15.5869 16.9851 -0.358875 18.0704
1965 1 -16.4054 -5.56639 -16.2914 -16.4054 -5.56639 -16.2914
9864 1 -13.8627 -3.78787 -15.954 -13.8627 -3.78787 -15.954
10069 1 -15.7238 -3.6329 -16.6186 17.9334 -3.6329 -16.6186
2816 1 -7.72949 -0.19705 -2.91537 -7.72949 -0.19705 -2.91537
11517 1 -9.33754 -4.52474 -16.42 24.3197 -4.52474 17.2372
9483 1 -11.0912 -10.3686 -16.6883 -11.0912 -10.3686 -16.6883
12218 1 -8.03861 -4.47962 -15.8842 -8.03861 -4.47962 17.773
5320 1 -6.63628 -5.78561 -15.824 -6.63628 -5.78561 -15.824
8203 1 -5.88706 -3.9366 -16.1608 -5.88706 -3.9366 17.4965
6214 1 -5.44475 -4.89484 -15.3458 -5.44475 -4.89484 18.3114
1690 1 -4.42044 -3.5757 -16.2534 -4.42044 -3.5757 -16.2534
3832 1 -4.13895 -5.15668 -16.0915 -4.13895 -5.15668 17.5657
15143 1 -2.20726 -5.79543 -14.7499 -2.20726 -5.79543 18.9074
1169 1 -2.73199 -4.90088 -16.6441 -2.73199 -4.90088 -16.6441
14832 1 -10.5916 -5.39208 -16.4977 -10.5916 -5.39208 17.1596
116 1 -10.9394 -0.385212 -0.610788 -10.9394 -0.385212 -34.268
9678 1 -15.164 -4.37011 -14.893 18.4932 -4.37011 -14.893
4005 1 -13.7138 -2.77711 -15.5302 -13.7138 -2.77711 18.1271
4724 1 -11.4799 -4.52527 -15.6739 -11.4799 -4.52527 -15.6739
5178 1 -12.1867 -3.53667 -15.9309 -12.1867 -3.53667 -15.9309
5740 1 -10.5642 -3.26979 -16.1248 -10.5642 -3.26979 -16.1248
7745 1 -14.167 -11.0952 -0.385949 -14.167 22.5621 -0.385949
1589 1 -8.90771 -3.47973 -15.8153 -8.90771 -3.47973 -15.8153
4321 1 -7.12661 -2.95486 -16.4733 -7.12661 -2.95486 -16.4733
10 1 -6.08964 -2.21601 -16.2781 -6.08964 -2.21601 -16.2781
4007 1 -16.7852 -8.41359 -13.8585 -16.7852 -8.41359 19.7988
14184 1 -0.852807 -0.525485 -3.34296 -0.852807 -0.525485 -3.34296
11530 1 -1.08058 -3.19658 -16.4486 -1.08058 -3.19658 17.2086
5078 1 -4.15049 -15.7179 -1.25 -4.15049 17.9394 -1.25
6062 1 -16.2635 -12.0004 -3.25587 -16.2635 21.6569 -3.25587
4178 1 -15.0668 -3.14754 -15.7415 -15.0668 -3.14754 17.9157
13690 1 -11.4367 -2.828 -16.5794 22.2205 -2.828 -16.5794
13904 1 -11.879 -2.2314 -15.4771 -11.879 -2.2314 -15.4771
13282 1 -9.13106 -2.22284 -15.5939 24.5262 -2.22284 -15.5939
4349 1 -11.1764 -0.719045 -15.3679 -11.1764 -0.719045 -15.3679
2952 1 -10.0769 -0.638474 -5.82871 -10.0769 -0.638474 -5.82871
6509 1 -7.07588 -1.86317 -15.7888 -7.07588 -1.86317 17.8685
2505 1 -5.18718 -0.773388 -15.7781 -5.18718 -0.773388 17.8791
6646 1 -4.29426 -1.43711 -16.8083 -4.29426 -1.43711 16.849
160 1 -2.26908 -3.28088 -15.9034 -2.26908 -3.28088 -15.9034
3802 1 -1.58245 -2.25583 -16.073 -1.58245 -2.25583 17.5843
5623 1 -12.5267 -0.838397 -15.7223 -12.5267 -0.838397 -15.7223
4094 1 -14.8445 -1.53703 -15.7967 -14.8445 -1.53703 -15.7967
8128 1 -12.9099 -2.3253 -16.1249 -12.9099 -2.3253 17.5324
7560 1 -0.330499 -9.56811 -2.09585 -0.330499 -9.56811 -2.09585
202 1 -13.7672 -16.5067 -9.0336 -13.7672 -16.5067 24.6237
2135 1 -10.9327 -0.305716 -16.6762 -10.9327 -0.305716 16.9811
4345 1 -8.24623 -0.890672 -15.5024 -8.24623 -0.890672 -15.5024
1855 1 -9.09081 -0.0689422 -15.8447 -9.09081 -33.7262 -15.8447
5069 1 -16.755 -15.163 -5.12166 -16.755 18.4943 -5.12166
12453 1 -0.146447 -1.05897 -10.7129 -0.146447 -1.05897 -10.7129
5308 1 -5.16408 -2.94431 -15.4444 -5.16408 -2.94431 -15.4444
14365 1 -15.5622 -16.6927 -9.97438 18.0951 16.9645 23.6829
5383 1 -2.6955 -0.248589 -16.0794 -2.6955 -0.248589 -16.0794
2891 1 -16.5312 -3.22666 -8.5777 -16.5312 -3.22666 25.0795
14342 1 -15.6191 -13.7006 -0.304187 18.0381 19.9566 -0.304187
13563 1 -1.77643 -1.16835 -15.5771 -1.77643 -1.16835 -15.5771
15196 1 -16.3911 -14.5775 -15.9559 17.2661 19.0798 17.7014
2429 1 -15.9895 -15.9218 -13.2661 -15.9895 -15.9218 20.3912
469 1 -14.7757 -16.1698 -15.454 -14.7757 -16.1698 -15.454
586 1 -9.08605 -11.1554 -0.0219681 -9.08605 -11.1554 -33.6792
2624 1 -13.0646 -15.1829 -14.8883 -13.0646 -15.1829 18.7689
74 1 -12.6792 -16.1303 -15.6447 -12.6792 -16.1303 -15.6447
5367 1 -10.7253 -16.3971 -14.6679 -10.7253 17.2601 -14.6679
1743 1 -9.38304 -15.5982 -14.8632 -9.38304 -15.5982 -14.8632
12478 1 -7.74141 -15.4668 -14.4375 25.9158 18.1904 -14.4375
934 1 -8.89957 -14.5493 -14.3785 -8.89957 -14.5493 -14.3785
8868 1 -5.28583 -15.8924 -14.0973 -5.28583 -15.8924 -14.0973
7538 1 -4.65978 -15.5419 -15.1905 -4.65978 18.1154 18.4667
6416 1 -3.05081 -16.3781 -15.832 -3.05081 17.2791 17.8252
8669 1 -2.63969 -15.7154 -13.5102 -2.63969 -15.7154 -13.5102
13987 1 -16.8412 -3.69121 -16.2133 16.816 -3.69121 -16.2133
6363 1 -1.48425 -16.6387 -14.1549 -1.48425 17.0185 19.5024
15396 1 -16.3849 -13.6848 -14.3202 17.2723 19.9725 19.3371
1924 1 -14.8955 -15.0926 -12.7015 -14.8955 -15.0926 -12.7015
8100 1 -14.5232 -15.3809 -14.2008 -48.1804 18.2763 19.4564
1812 1 -12.1613 -14.0129 -14.8715 -12.1613 -14.0129 -14.8715
8046 1 -13.7906 -16.3928 -13.4057 -13.7906 17.2645 20.2515
4514 1 -9.72541 -13.4801 -13.7048 -9.72541 20.1772 -13.7048
16382 1 -6.05321 -14.8148 -14.5377 -6.05321 18.8425 -14.5377
1925 1 -4.49806 -14.3924 -14.5737 -4.49806 -14.3924 -14.5737
2126 1 -3.41987 -13.871 -13.7757 -3.41987 -13.871 19.8816
9630 1 -3.03951 -15.0707 -14.8011 -3.03951 -15.0707 -14.8011
11646 1 -0.709547 -15.4567 -13.9784 -0.709547 -15.4567 19.6788
12827 1 -15.8758 -14.5158 -14.7531 -15.8758 19.1414 -14.7531
4219 1 -13.8741 -13.8735 -14.5676 -13.8741 19.7838 -14.5676
13957 1 -11.4442 -13.1097 -13.4323 22.2131 20.5476 -13.4323
13813 1 -10.6506 -12.9975 -14.8205 23.0066 20.6598 -14.8205
3127 1 -7.15095 -14.0872 -14.973 -7.15095 -14.0872 18.6842
11712 1 -8.58487 -13.3494 -13.9394 25.0724 -13.3494 19.7179
4689 1 -5.4595 -13.2922 -14.4106 -5.4595 -13.2922 -14.4106
357 1 -4.036 -13.1241 -14.728 -4.036 -13.1241 -14.728
12009 1 -2.66778 -13.437 -16.0727 -2.66778 -13.437 17.5845
4680 1 -1.71676 -14.0615 -15.6345 -1.71676 19.5958 -15.6345
53 1 -12.8169 -8.98902 -16.7541 -12.8169 -42.6463 -16.7541
1431 1 -15.675 -12.8596 -14.8761 -15.675 -12.8596 -14.8761
849 1 -16.0305 -11.4757 -13.3807 -16.0305 -11.4757 -13.3807
8786 1 -15.1516 -11.3652 -14.687 18.5056 -11.3652 -14.687
4665 1 -12.3627 -12.146 -14.7873 -12.3627 21.5112 -14.7873
10172 1 -14.3908 -12.0451 -14.7888 19.2664 -12.0451 -14.7888
5923 1 -10.4869 -11.6691 -15.0111 -10.4869 -11.6691 -15.0111
336 1 -11.2338 -12.1041 -13.9994 -11.2338 -12.1041 -13.9994
9435 1 -8.83457 -12.5754 -15.2277 24.8227 -12.5754 -15.2277
597 1 -7.14232 -12.9838 -14.523 -40.7996 -12.9838 19.1342
2426 1 -5.80994 -10.8318 -15.7934 -5.80994 -10.8318 17.8638
8036 1 -6.81303 -11.9033 -14.4475 -6.81303 21.7539 19.2097
951 1 -5.39679 -12.0371 -14.319 -5.39679 -12.0371 -14.319
8173 1 -4.38712 -11.8022 -15.2661 -4.38712 21.855 18.3911
3683 1 -2.06382 -11.5746 -15.068 -2.06382 -11.5746 18.5893
9183 1 -1.57334 -12.9924 -14.2473 -1.57334 -12.9924 -14.2473
9896 1 -0.833491 -13.1913 -15.3322 -0.833491 -13.1913 -15.3322
1375 1 -16.5221 -10.3452 -12.9792 -16.5221 -10.3452 -12.9792
5795 1 -5.45491 -0.106164 -12.6091 -5.45491 -0.106164 -12.6091
8215 1 -13.1114 -11.7223 -15.779 -13.1114 21.935 17.8783
1536 1 -12.4925 -10.5077 -15.9852 -12.4925 -10.5077 -15.9852
2261 1 -10.3671 -10.4317 -15.2224 -10.3671 -10.4317 18.4348
1435 1 -11.8911 -11.0183 -15.0794 -11.8911 -11.0183 -15.0794
1802 1 -9.30387 -11.0721 -15.0359 -9.30387 -11.0721 -15.0359
1305 1 -7.88725 -10.2547 -15.3041 -7.88725 -10.2547 -15.3041
8083 1 -5.50248 -10.5374 -14.1484 -5.50248 -10.5374 19.5089
5990 1 -3.07367 -12.0321 -14.0706 -3.07367 -12.0321 -14.0706
148 1 -0.648385 -12.3485 -14.6232 -0.648385 -12.3485 -14.6232
10961 1 -1.65491 -10.7583 -14.3073 -1.65491 -10.7583 19.3499
749 1 -15.7281 -8.84278 -14.3748 -15.7281 -8.84278 -14.3748
16213 1 -0.62853 -2.75607 -1.86745 -0.62853 -2.75607 -1.86745
11112 1 -13.7127 -10.5301 -14.9997 19.9445 -10.5301 18.6576
808 1 -10.6859 -10.3395 -13.11 -10.6859 -10.3395 -13.11
14478 1 -11.1087 -9.54117 -14.8849 22.5485 24.1161 -14.8849
11538 1 -9.13417 -9.59532 -15.0347 24.5231 -9.59532 18.6225
1760 1 -7.58366 -9.85883 -13.7622 -7.58366 -9.85883 -13.7622
5290 1 -5.43214 -8.70326 -13.0882 -5.43214 -8.70326 -13.0882
11584 1 -6.33568 -8.8028 -14.4443 -6.33568 -8.8028 19.213
1537 1 -4.70523 -9.92386 -14.6848 -4.70523 -9.92386 -14.6848
10054 1 -5.27197 -8.74767 -15.0392 -5.27197 -8.74767 -15.0392
12016 1 -3.46998 -10.9155 -14.1621 -3.46998 -10.9155 19.4951
7430 1 -2.13116 -8.13054 -14.9927 -2.13116 -8.13054 18.6646
6378 1 -2.76891 -10.6644 -15.5995 -2.76891 -10.6644 18.0577
2623 1 -15.5623 -9.44793 -13.0019 -15.5623 -9.44793 20.6553
6319 1 -15.1643 -7.15598 -15.5725 -15.1643 26.5013 18.0847
10724 1 -14.6801 -7.86104 -14.4139 -14.6801 -7.86104 19.2433
3051 1 -13.9541 -7.42835 -16.0921 -13.9541 -7.42835 17.5652
14935 1 -12.4315 -9.33578 -14.1569 -12.4315 -9.33578 19.5004
6334 1 -12.8933 -7.68449 -14.7605 -12.8933 -7.68449 18.8967
740 1 -11.6688 -8.03427 -14.6056 -11.6688 -8.03427 -14.6056
480 1 -10.2292 -8.80263 -14.1622 -10.2292 -8.80263 -14.1622
741 1 -9.34712 -8.19547 -15.3977 -9.34712 -8.19547 -15.3977
1843 1 -8.70273 -7.88025 -14.4325 -8.70273 -7.88025 -14.4325
3889 1 -6.38195 -6.63036 -14.6058 -6.38195 -6.63036 -14.6058
310 1 -3.96786 -8.86459 -14.7546 -3.96786 -8.86459 -14.7546
2324 1 -0.958289 -7.73051 -14.6515 -0.958289 -7.73051 19.0058
58 1 -16.6024 -6.69709 -15.608 -16.6024 -6.69709 -15.608
9339 1 -15.9818 -6.90502 -13.6565 17.6755 -6.90502 -13.6565
12159 1 -14.0951 -6.68226 -14.4441 -14.0951 -6.68226 19.2132
2398 1 -12.5436 -6.33957 -13.8988 -12.5436 -6.33957 19.7584
2611 1 -11.8752 -6.43723 -14.8856 -11.8752 -6.43723 18.7717
14402 1 -9.22953 -6.8581 -15.0035 24.4277 -6.8581 18.6537
4172 1 -7.20209 -7.01111 -15.6266 -7.20209 26.6461 -15.6266
8056 1 -9.82931 -5.73759 -13.6347 -9.82931 -5.73759 20.0225
12350 1 -5.01623 -5.01069 -13.7844 -5.01623 28.6466 -13.7844
1887 1 -4.99138 -6.15303 -13.5036 -4.99138 -6.15303 -13.5036
9002 1 -3.08737 -7.18391 -14.9697 -3.08737 -7.18391 -14.9697
8505 1 -4.14893 -6.75459 -16.188 -4.14893 -6.75459 -16.188
2117 1 -3.3685 -5.9795 -14.5146 -3.3685 -5.9795 -14.5146
11717 1 -0.951312 -5.69858 -14.6496 -0.951312 -5.69858 -14.6496
797 1 -0.513878 -7.06074 -13.7008 -0.513878 -7.06074 -13.7008
10490 1 -16.2265 -4.68586 -14.9702 17.4307 -4.68586 18.6871
4789 1 -13.928 -4.35237 -15.0972 -13.928 -4.35237 -15.0972
1894 1 -15.6747 -5.84983 -14.8586 -15.6747 -5.84983 -14.8586
3029 1 -13.8456 -5.28328 -15.524 -13.8456 -5.28328 18.1333
3070 1 -10.3643 -4.19749 -15.5164 -10.3643 -4.19749 18.1409
914 1 -8.63959 -4.70953 -14.846 -8.63959 -4.70953 -14.846
2873 1 -7.17101 -5.18407 -14.9696 -7.17101 -5.18407 18.6877
1408 1 -6.15389 -4.47403 -14.5894 -6.15389 -4.47403 -14.5894
3130 1 -5.41207 -6.84888 -15.1755 -5.41207 -6.84888 18.4817
10574 1 -1.79313 -4.45187 -15.0057 -1.79313 -4.45187 18.6516
16068 1 -3.64789 -5.05961 -15.0888 30.0094 -5.05961 -15.0888
3881 1 -8.51018 -5.96503 -15.9388 -8.51018 -5.96503 17.7185
5094 1 -16.2749 -3.3723 -15.1141 -16.2749 -3.3723 -15.1141
12386 1 -15.546 -4.21944 -13.5684 18.1113 -4.21944 -13.5684
6501 1 -12.6237 -4.51198 -14.5644 -12.6237 -4.51198 19.0929
15893 1 -13.3702 -3.11483 -14.4245 -13.3702 -3.11483 19.2327
8744 1 -11.4649 -3.41253 -14.5779 22.1924 -3.41253 -14.5779
2264 1 -9.52879 -3.34613 -15.0185 -9.52879 -3.34613 18.6387
621 1 -7.86015 -4.29842 -13.8281 -7.86015 -4.29842 -13.8281
10958 1 -6.23476 -3.05084 -14.4694 -6.23476 -3.05084 19.1879
5248 1 -3.54777 -3.27088 -14.6346 -3.54777 -3.27088 -14.6346
573 1 -2.83797 -4.0072 -15.3782 -2.83797 -4.0072 -15.3782
4691 1 -2.13953 -3.54618 -14.2397 -2.13953 -3.54618 -14.2397
2049 1 -1.39859 -3.05132 -14.8781 -1.39859 -3.05132 18.7791
11978 1 -0.508568 -4.97185 -15.7891 -0.508568 -4.97185 17.8682
9060 1 -16.2449 -1.94847 -14.5467 17.4124 -1.94847 -14.5467
10751 1 -14.6929 -2.65746 -14.2376 18.9644 -2.65746 19.4197
13163 1 -15.8592 -1.28995 -13.4071 17.798 -1.28995 -13.4071
4082 1 -13.1567 -1.40635 -15.069 -13.1567 -1.40635 -15.069
1023 1 -13.1733 -2.02934 -13.9167 -13.1733 -2.02934 -13.9167
9221 1 -10.3802 -2.43418 -15.0589 -10.3802 -2.43418 -15.0589
4597 1 -7.79503 -2.68553 -15.1996 -7.79503 -2.68553 -15.1996
696 1 -7.21806 -3.78748 -15.2444 -7.21806 -3.78748 -15.2444
6851 1 -6.49959 -2.55111 -13.206 -6.49959 -2.55111 20.4513
7703 1 -6.69292 -2.14955 -14.6509 -6.69292 -2.14955 19.0063
4205 1 -3.46522 -2.80751 -15.7296 -3.46522 30.8497 -15.7296
11792 1 -2.50198 -2.15773 -13.3092 -2.50198 -2.15773 20.348
5765 1 -0.567677 -1.98587 -14.8265 -0.567677 -1.98587 -14.8265
676 1 -2.38077 -2.58672 -14.5631 -2.38077 -2.58672 -14.5631
13384 1 -0.20998 -1.01001 -15.4491 -0.20998 -1.01001 18.2081
13191 1 -1.39168 -3.27441 -13.4552 -1.39168 -3.27441 20.2021
15718 1 -0.0583813 -15.9449 -14.8505 -0.0583813 17.7123 -14.8505
7877 1 -15.6697 -0.796497 -14.7427 -15.6697 -0.796497 18.9146
4869 1 -13.6378 -0.671385 -14.1371 -13.6378 -0.671385 -14.1371
11361 1 -11.9201 -0.550202 -14.603 21.7371 -0.550202 19.0542
6485 1 -10.1434 -1.028 -14.4504 -10.1434 32.6292 19.2068
22 1 -8.69821 -0.934494 -14.4471 -8.69821 -0.934494 -14.4471
4470 1 -6.84145 -0.528462 -14.9455 -6.84145 -0.528462 -14.9455
9395 1 -7.64937 -1.5766 -14.3613 26.0079 -1.5766 -14.3613
15773 1 -0.279908 -0.497887 -1.48422 -0.279908 33.1594 -1.48422
6725 1 -4.97081 -1.72513 -15.3663 -4.97081 -1.72513 18.2909
7424 1 -3.669 -1.40556 -15.1754 -3.669 32.2517 18.4819
9308 1 -15.1377 -16.315 -11.9968 18.5196 -16.315 -11.9968
2471 1 -8.59679 -12.8439 -16.3732 -8.59679 -12.8439 17.284
5937 1 -1.0393 -14.0404 -16.6602 -1.0393 19.6168 -16.6602
2851 1 -12.8481 -15.4882 -13.1866 -12.8481 -15.4882 20.4706
13776 1 -16.7456 -7.88893 -6.85245 16.9117 25.7683 -6.85245
15758 1 -11.0916 -14.821 -13.1596 22.5657 18.8363 -13.1596
1171 1 -11.3973 -16.2322 -13.8896 -45.0546 -16.2322 -13.8896
12861 1 -8.62659 -16.107 -14.0262 -8.62659 17.5503 -14.0262
13962 1 -7.31518 -15.6541 -12.881 26.3421 -15.6541 -12.881
6185 1 -6.47187 -16.4592 -14.0067 -6.47187 17.198 19.6506
11648 1 -5.62667 -15.6152 -12.754 -5.62667 -15.6152 20.9032
1108 1 -15.6008 -13.5309 -16.1516 -15.6008 -13.5309 -16.1516
1231 1 -1.75479 -16.1778 -12.3481 -1.75479 -16.1778 -12.3481
9096 1 -0.124068 -15.9954 -13.2313 -0.124068 -15.9954 -13.2313
14206 1 -0.611322 -12.8145 -4.78826 -0.611322 20.8427 -4.78826
10007 1 -16.7643 -15.0013 -13.503 16.893 -15.0013 -13.503
4974 1 -2.79988 -1.72016 -16.1432 -2.79988 -1.72016 -16.1432
761 1 -16.013 -14.6209 -12.5358 -16.013 -14.6209 -12.5358
3063 1 -13.4818 -14.7027 -13.6087 -13.4818 -14.7027 20.0486
14931 1 -12.0632 -15.3086 -14.3711 21.594 18.3487 19.2861
1251 1 -10.9522 -13.8279 -14.0852 -10.9522 19.8293 -14.0852
3110 1 -10.4849 -15.1548 -11.9187 -10.4849 -15.1548 21.7385
4054 1 -10.1388 -15.784 -13.5694 -10.1388 -15.784 20.0879
124 1 -9.25674 -14.8167 -13.4426 -9.25674 -14.8167 -13.4426
828 1 -10.0131 -13.8995 -12.4528 -10.0131 -13.8995 -12.4528
7646 1 -7.77243 -14.7131 -13.6357 -7.77243 18.9442 20.0215
13952 1 -7.07271 -14.6748 -12.7541 -7.07271 18.9825 -12.7541
5388 1 -5.92228 -14.4935 -12.8013 -5.92228 19.1638 -12.8013
5700 1 -3.97692 -15.6631 -14.2367 -3.97692 17.9941 -14.2367
5217 1 -3.50042 -15.5797 -12.1086 -3.50042 18.0776 -12.1086
1814 1 -1.70351 -15.0557 -13.5096 -1.70351 -15.0557 -13.5096
12351 1 -0.785499 -14.0542 -14.4669 32.8718 19.6031 -14.4669
1639 1 -9.34721 -6.51687 -16.7567 -9.34721 -6.51687 -16.7567
6879 1 -15.5436 -14.1832 -13.7131 -15.5436 19.474 19.9442
767 1 -14.2124 -13.771 -13.0954 -14.2124 -13.771 -13.0954
14882 1 -13.7717 -12.4405 -13.6997 19.8855 21.2167 19.9576
1290 1 -12.7695 -13.6866 -12.8643 -12.7695 -13.6866 -12.8643
11370 1 -11.7685 -12.622 -11.5613 21.8887 -12.622 22.0959
9845 1 -10.2941 -12.5711 -13.4579 23.3632 -12.5711 -13.4579
2488 1 -8.62325 -12.3402 -13.1262 -8.62325 -12.3402 20.531
523 1 -7.34421 -13.1141 -12.8892 -7.34421 -13.1141 -12.8892
4147 1 -6.32526 -13.5262 -13.8529 -6.32526 20.131 -13.8529
3131 1 -6.11517 -13.2388 -12.6581 -6.11517 -13.2388 -12.6581
8402 1 -4.68946 -13.6052 -13.3626 -4.68946 -13.6052 -13.3626
9433 1 -3.65601 -14.9755 -13.1698 -3.65601 -14.9755 -13.1698
4720 1 -2.30994 -14.132 -13.5267 -2.30994 19.5252 -13.5267
8558 1 -1.66855 -9.19274 -16.2035 -1.66855 -9.19274 -16.2035
8795 1 -15.4829 -10.6227 -12.3383 18.1744 -10.6227 -12.3383
11865 1 -15.2964 -12.7655 -13.38 18.3609 -12.7655 20.2773
5720 1 -11.6652 -10.7553 -13.7613 -11.6652 22.9019 -13.7613
8850 1 -9.35686 -11.2594 -12.6875 24.3004 -11.2594 -12.6875
7848 1 -9.63506 -11.9344 -14.008 -9.63506 21.7229 19.6493
733 1 -7.86105 -11.301 -14.7863 -7.86105 -11.301 -14.7863
10676 1 -7.04335 -12.123 -13.1645 -7.04335 -12.123 -13.1645
1521 1 -4.38052 -12.3613 -14.1575 -4.38052 -12.3613 -14.1575
3551 1 -2.66827 -13.014 -14.2553 -2.66827 -13.014 -14.2553
15864 1 -2.42576 -12.8737 -12.6435 -2.42576 20.7836 21.0138
10111 1 -0.999856 -11.7838 -12.9166 -0.999856 -11.7838 -12.9166
10043 1 -15.2586 -9.54649 -11.7725 18.3987 -9.54649 -11.7725
11606 1 -15.2571 -10.6613 -13.4868 18.4002 -10.6613 -13.4868
3528 1 -14.5393 -9.62788 -13.196 -14.5393 -9.62788 -13.196
11856 1 -13.1808 -11.0044 -14.1797 20.4765 -11.0044 19.4776
6302 1 -13.5119 -11.323 -13.0267 -13.5119 22.3342 -13.0267
1910 1 -12.2116 -10.4758 -12.4335 -12.2116 -10.4758 -12.4335
1761 1 -10.0101 -10.8142 -13.9444 -10.0101 -10.8142 -13.9444
5423 1 -11.3207 -11.0425 -12.5189 -11.3207 -11.0425 -12.5189
899 1 -8.67966 -10.1085 -13.9098 -8.67966 -10.1085 -13.9098
10984 1 -7.75869 -11.4329 -12.525 25.8986 -11.4329 21.1323
1461 1 -6.9896 -10.9213 -13.3005 -6.9896 -10.9213 -13.3005
3074 1 -6.31593 -9.4453 -13.3441 -6.31593 -9.4453 20.3132
6380 1 -4.62483 -10.5276 -13.2825 -4.62483 -10.5276 -13.2825
4807 1 -5.63287 -11.2291 -12.2356 -5.63287 22.4281 -12.2356
6994 1 -2.46088 -10.558 -13.1743 -2.46088 -10.558 20.483
2710 1 -2.12447 -11.7675 -13.6334 -2.12447 -11.7675 20.0238
344 1 -16.0642 -8.45181 -11.6805 -16.0642 -8.45181 -11.6805
12056 1 -14.8698 -9.89108 -14.3339 -14.8698 -9.89108 19.3234
6982 1 -13.8236 -8.77297 -14.193 -13.8236 -8.77297 19.4643
9577 1 -13.3108 -9.83846 -13.185 20.3464 -9.83846 -13.185
12169 1 -11.1415 -9.31525 -13.3902 -11.1415 -9.31525 -13.3902
6929 1 -9.34992 -9.42653 -12.827 -9.34992 -9.42653 -12.827
2147 1 -8.27275 -9.04748 -11.8257 -8.27275 -9.04748 21.8315
9124 1 -7.65576 -8.738 -12.9164 -7.65576 -8.738 -12.9164
13517 1 -5.0434 -7.82088 -13.4031 -5.0434 25.8364 -13.4031
4796 1 -1.13586 -9.10057 -14.2719 -1.13586 -9.10057 -14.2719
8804 1 -2.49783 -9.60699 -13.8306 -2.49783 -9.60699 -13.8306
15516 1 -2.38272 -9.23728 -12.8699 31.2745 -9.23728 20.7873
2941 1 -8.86589 -2.1862 -0.0983878 -8.86589 -2.1862 -0.0983878
335 1 -14.8337 -7.84643 -13.3261 -14.8337 -7.84643 -13.3261
12226 1 -12.0048 -8.72309 -12.58 -12.0048 -8.72309 21.0773
4978 1 -11.0811 -7.01396 -13.7615 -11.0811 -7.01396 -13.7615
3405 1 -8.68258 -8.37133 -13.2198 -8.68258 -8.37133 20.4375
3061 1 -8.14637 -7.85632 -11.7896 -8.14637 -7.85632 21.8676
2054 1 -9.79176 -7.21677 -13.9367 -9.79176 -7.21677 19.7206
5155 1 -7.91546 -7.24531 -13.6337 -7.91546 26.4119 -13.6337
751 1 -6.26747 -7.6367 -13.3121 -6.26747 -7.6367 -13.3121
5115 1 -7.40086 -7.02635 -12.4422 -7.40086 -7.02635 -12.4422
4295 1 -5.87549 -8.34103 -11.9965 -5.87549 -8.34103 -11.9965
12840 1 -4.11898 -6.73212 -12.6451 -4.11898 26.9251 -12.6451
13632 1 -4.54736 -7.02365 -14.0212 -4.54736 -7.02365 -14.0212
10259 1 -2.28198 -8.36836 -13.7099 -2.28198 -8.36836 -13.7099
3004 1 -2.17446 -7.01029 -13.3554 -2.17446 -7.01029 20.3019
460 1 -2.35666 -1.40227 -0.580115 -2.35666 -1.40227 -0.580115
4581 1 -0.896196 -8.21168 -13.0788 -0.896196 -8.21168 -13.0788
15340 1 -0.228898 -8.32239 -11.7446 -0.228898 -8.32239 21.9126
8760 1 -14.8757 -2.38424 -16.7041 18.7815 -2.38424 -16.7041
97 1 -16.1598 -6.55668 -12.1768 -16.1598 -6.55668 -12.1768
10037 1 -13.2953 -8.05002 -13.0028 -13.2953 -8.05002 -13.0028
8524 1 -13.4821 -5.45307 -14.0183 20.1752 -5.45307 -14.0183
3363 1 -11.0451 -5.98081 -13.7892 -11.0451 -5.98081 19.868
10003 1 -13.0317 -6.43322 -12.3263 20.6255 -6.43322 -12.3263
2801 1 -10.6014 -6.02021 -12.4451 -10.6014 -6.02021 21.2122
13950 1 -8.59329 -6.33292 -12.8132 -8.59329 -6.33292 -12.8132
3005 1 -7.12703 -5.96409 -13.8903 -7.12703 -5.96409 19.767
11445 1 -6.95165 -4.01472 -13.2468 26.7056 -4.01472 20.4105
10693 1 -6.41056 -6.848 -12.6022 27.2467 -6.848 21.0551
1625 1 -2.38912 -6.72717 -11.9278 -2.38912 -6.72717 -11.9278
15509 1 -1.6199 -6.08035 -13.6273 -1.6199 -6.08035 20.0299
1798 1 -0.899974 -4.69276 -13.8191 -0.899974 -4.69276 -13.8191
13477 1 -1.13022 -6.62917 -12.8323 -1.13022 27.0281 -12.8323
12728 1 -9.62524 -5.6876 -1.43611 24.032 -5.6876 -1.43611
4176 1 -16.6264 -5.419 -12.7656 -16.6264 -5.419 -12.7656
7670 1 -15.9182 -5.31383 -13.6995 -15.9182 -5.31383 19.9578
9133 1 -14.8587 -5.50093 -14.0967 18.7985 -5.50093 -14.0967
9266 1 -11.0691 -4.72358 -14.2596 22.5882 -4.72358 -14.2596
15923 1 -10.0271 -4.74776 -14.614 23.6301 -4.74776 19.0432
1975 1 -10.2921 -4.75596 -12.8233 -10.2921 -4.75596 -12.8233
5089 1 -9.27365 -4.0112 -13.4871 -9.27365 -4.0112 -13.4871
570 1 -8.37787 -5.37492 -13.6086 -8.37787 -5.37492 -13.6086
9368 1 -4.02972 -5.40587 -12.877 -4.02972 -5.40587 -12.877
1590 1 -3.67462 -4.60354 -14.1617 -3.67462 -4.60354 -14.1617
4566 1 -2.75977 -5.87956 -13.1142 -2.75977 27.7777 -13.1142
1702 1 -2.67352 -4.73364 -13.7236 -2.67352 -4.73364 -13.7236
8131 1 -0.669751 -3.79621 -14.2195 -0.669751 -3.79621 -14.2195
3468 1 -16.7768 -3.89991 -13.3801 -16.7768 -3.89991 20.2771
4903 1 -15.1117 -3.36981 -12.7566 -15.1117 -3.36981 -12.7566
12427 1 -15.74 -2.86256 -13.5459 17.9173 -2.86256 -13.5459
2303 1 -12.1713 -5.38785 -12.8369 -12.1713 -5.38785 20.8204
8062 1 -13.6206 -4.71135 -12.7127 -13.6206 -4.71135 20.9446
9429 1 -12.0918 -3.23114 -12.9539 21.5655 -36.8884 -12.9539
8097 1 -10.27 -3.30022 -13.6482 -10.27 -3.30022 20.009
1032 1 -9.97367 -3.75146 -12.1539 -9.97367 -3.75146 -12.1539
1866 1 -8.3384 -2.75417 -12.4957 -8.3384 -2.75417 -12.4957
13603 1 -7.56916 -2.98345 -13.4667 -7.56916 -2.98345 -13.4667
6588 1 -5.61998 -3.09788 -13.0006 -5.61998 -3.09788 20.6566
13501 1 -4.7163 -3.83239 -14.6929 -4.7163 -3.83239 -14.6929
9673 1 -4.62396 -3.43888 -12.4116 -4.62396 -3.43888 -12.4116
5538 1 -1.94062 -3.73776 -12.6676 -1.94062 -3.73776 -12.6676
9326 1 -4.06635 -0.60761 -0.0639286 -4.06635 -0.60761 -0.0639286
2826 1 -15.3597 -16.15 -1.031 -15.3597 -16.15 -1.031
11013 1 -13.8006 -4.25085 -14.0887 19.8566 -4.25085 19.5686
266 1 -14.4384 -1.46833 -14.0513 -14.4384 -1.46833 -14.0513
737 1 -13.0615 -3.55487 -12.9085 -13.0615 -3.55487 -12.9085
9756 1 -8.72927 -3.05795 -14.2773 24.928 -36.7152 -14.2773
13678 1 -9.33688 -1.47861 -13.5444 -9.33688 -1.47861 -13.5444
9303 1 -8.3841 -1.87912 -13.4671 25.2732 -1.87912 -13.4671
1882 1 -7.83001 -1.31094 -12.484 -7.83001 -1.31094 -12.484
1648 1 -4.70251 -2.67762 -14.0013 -4.70251 -2.67762 -14.0013
5052 1 -4.9727 -1.61662 -12.9917 -4.9727 -1.61662 -12.9917
324 1 -3.76558 -2.06735 -13.9616 -3.76558 -2.06735 -13.9616
9111 1 -3.18715 -1.25445 -14.0005 -3.18715 -1.25445 -14.0005
287 1 -0.66835 -0.020132 -13.4728 -0.66835 33.6371 -13.4728
15399 1 -13.7402 -11.5738 -16.6704 19.917 22.0835 16.9868
12354 1 -14.6531 -1.61814 -12.3621 19.0042 -1.61814 -12.3621
2936 1 -14.7487 -0.226098 -13.6772 -14.7487 -0.226098 19.9801