ITEM: TIMESTEP
9000
ITEM: NUMBER OF ATOMS
16384
ITEM: BOX BOUNDS pp pp pp
-1.6828627036276380e+01 1.6828627036276380e+01
-1.6828627036276380e+01 1.6828627036276380e+01
-1.6828627036276380e+01 1.6828627036276380e+01
ITEM: ATOMS id type x y z xu yu zu
12124 1 -0.0486553 -0.800559 -4.60075 -0.0486553 -0.800559 -4.60075
8527 1 -0.574555 -3.25448 -0.719853 -0.574555 -3.25448 -0.719853
2372 1 -14.3399 -16.5457 -16.2194 -14.3399 -16.5457 17.4379
74 1 -13.1997 -15.6575 -15.9531 -13.1997 -15.6575 -15.9531
7833 1 -12.0043 -16.1502 -16.1296 -12.0043 17.5071 17.5277
8662 1 -9.84411 -15.7922 -15.4514 23.8131 -15.7922 -15.4514
6369 1 -8.99845 -15.9257 -16.381 -8.99845 17.7315 17.2763
946 1 -0.0755689 -11.0888 -5.82365 -0.0755689 -11.0888 -5.82365
15399 1 -14.6207 -11.2988 -16.815 19.0365 22.3585 16.8423
6416 1 -3.5165 -16.6922 -15.4093 -3.5165 16.9651 18.2479
5641 1 -3.29654 -14.9657 -15.4975 -3.29654 18.6915 -15.4975
2354 1 -1.71243 -16.1869 -15.9606 -1.71243 -16.1869 17.6966
13665 1 -0.590762 -15.1648 -15.9019 -0.590762 18.4924 -15.9019
4110 1 -15.8418 -0.26636 -0.869796 -15.8418 -0.26636 -0.869796
44 1 -15.3288 -15.5561 -15.6497 -15.3288 -15.5561 18.0075
4387 1 -15.1974 -13.9386 -16.0634 -15.1974 19.7186 17.5939
6190 1 -13.2321 -14.5758 -15.7065 -13.2321 19.0815 17.9508
3581 1 -14.3247 -15.0759 -15.9666 -14.3247 -15.0759 17.6907
1497 1 -7.17443 -14.825 -14.9348 -7.17443 -14.825 -14.9348
472 1 -7.4132 -14.6784 -16.3445 -7.4132 -14.6784 -16.3445
7581 1 -16.5413 -4.97341 -8.51146 -16.5413 -4.97341 -8.51146
1723 1 -6.06401 -14.225 -14.6668 -6.06401 -14.225 -14.6668
12146 1 -6.49468 -15.4135 -16.4937 -6.49468 -15.4135 17.1636
8260 1 -3.11405 -14.916 -16.8373 -3.11405 -14.916 -16.8373
4680 1 -1.52542 -15.4896 -14.8693 -1.52542 18.1676 -14.8693
11106 1 -4.81002 -0.456331 -10.8754 -4.81002 -0.456331 22.7819
1108 1 -15.9653 -14.2336 -15.2143 -15.9653 -14.2336 -15.2143
5101 1 -14.9904 -12.3555 -15.5966 -14.9904 -12.3555 -15.5966
15615 1 -13.9296 -13.7853 -16.5603 -13.9296 19.872 17.097
8060 1 -4.84062 -1.44812 -0.932247 -4.84062 -1.44812 -0.932247
7530 1 -11.9175 -13.7113 -14.9763 -11.9175 -13.7113 18.681
7734 1 -10.9099 -15.3089 -16.274 -10.9099 18.3483 17.3833
2471 1 -8.43354 -12.8217 -16.7714 -8.43354 -12.8217 16.8858
6529 1 -7.33097 -12.3064 -15.8473 -7.33097 -12.3064 17.81
9993 1 -0.265879 -10.9721 -2.56021 -0.265879 -10.9721 -2.56021
9383 1 -4.71359 -14.6454 -14.9963 -4.71359 -14.6454 -14.9963
11680 1 -3.54245 -13.6996 -16.208 -3.54245 -13.6996 17.4493
1106 1 -15.3157 -16.404 -10.5707 -15.3157 -16.404 -10.5707
4183 1 -9.18676 -0.207284 -6.06905 -9.18676 -0.207284 -6.06905
12899 1 -8.77074 -16.7742 -10.3447 -8.77074 16.883 -10.3447
4805 1 -7.96516 -0.440532 -5.59633 -7.96516 -0.440532 -5.59633
8215 1 -12.5609 -12.4602 -15.9891 -12.5609 21.197 17.6682
952 1 -4.93985 -0.319218 -3.79645 -4.93985 -0.319218 -3.79645
4235 1 -12.0151 -13.2019 -16.4503 -12.0151 20.4553 17.207
3722 1 -10.634 -11.8488 -15.9483 -10.634 -11.8488 17.7089
5407 1 -0.774279 -0.160556 -6.6674 -0.774279 -0.160556 -6.6674
4859 1 -8.16675 -11.1293 -16.5405 -8.16675 22.5279 -16.5405
9790 1 -6.88041 -10.8328 -16.4452 -6.88041 -10.8328 -16.4452
642 1 -6.5353 -12.1629 -16.7237 -6.5353 -12.1629 -16.7237
5493 1 -11.6563 -15.9187 -6.9466 -11.6563 17.7386 -6.9466
6275 1 -4.73695 -13.533 -16.1901 -4.73695 -13.533 -16.1901
7644 1 -4.22837 -11.9011 -16.7053 -4.22837 21.7562 16.952
6944 1 -1.26928 -12.818 -15.9055 -1.26928 20.8392 17.7518
1594 1 -4.04205 -16.5602 -2.13652 -4.04205 -16.5602 -2.13652
9190 1 -15.2342 -9.68637 -15.9943 18.4231 -9.68637 17.6629
12045 1 -14.9071 -10.7022 -15.7464 18.7501 -10.7022 17.9108
603 1 -13.6479 -9.11888 -16.1926 -13.6479 -9.11888 -16.1926
1536 1 -12.8325 -10.2086 -15.8696 -12.8325 -10.2086 -15.8696
9483 1 -11.433 -10.3784 -16.3296 -11.433 -10.3784 -16.3296
6523 1 -10.0091 -10.5765 -15.9533 -10.0091 23.0807 17.704
2426 1 -5.52306 -11.153 -15.6386 -5.52306 -11.153 18.0186
13934 1 -12.4142 -15.6329 -14.9404 -12.4142 18.0244 -14.9404
5027 1 -5.67036 -12.7565 -16.569 -5.67036 20.9008 -16.569
1524 1 -4.07899 -10.8126 -15.3668 -4.07899 -10.8126 -15.3668
6378 1 -3.37084 -10.8468 -16.1318 -3.37084 -10.8468 17.5254
9890 1 -0.597024 -11.3889 -16.6549 -0.597024 -11.3889 -16.6549
10684 1 -16.3027 -9.31602 -14.3606 17.3545 -9.31602 19.2967
4836 1 -9.46495 -16.5211 -3.87221 -9.46495 17.1361 -3.87221
10241 1 -3.17512 -0.336352 -10.2527 -3.17512 -0.336352 -10.2527
5503 1 -11.7726 -10.2955 -14.8598 -11.7726 23.3617 -14.8598
1438 1 -11.3489 -8.99616 -15.5273 -11.3489 -8.99616 -15.5273
12503 1 -9.10388 -8.73628 -16.1267 24.5534 24.921 -16.1267
1293 1 -7.22691 -9.26412 -15.0065 -7.22691 -9.26412 -15.0065
10154 1 -8.30562 -0.680132 -1.99496 -8.30562 -0.680132 -1.99496
9058 1 -5.90767 -9.17303 -15.4692 27.7496 -9.17303 -15.4692
13287 1 -4.17463 -9.20822 -16.6133 -4.17463 -9.20822 -16.6133
8558 1 -2.01892 -10.1108 -16.2201 -2.01892 -10.1108 -16.2201
11601 1 -16.4843 -0.0526043 -8.59287 17.1729 -0.0526043 -8.59287
6319 1 -15.2062 -7.38016 -15.3373 -15.2062 26.2771 18.32
4034 1 -14.1137 -7.91946 -15.7738 -14.1137 -7.91946 17.8834
3051 1 -14.1249 -6.98039 -15.2263 -14.1249 -6.98039 18.431
1175 1 -11.5022 -7.03986 -16.5945 -11.5022 -7.03986 -16.5945
12522 1 -11.4207 -7.2339 -15.2672 -11.4207 -7.2339 -15.2672
2010 1 -12.7024 -8.22278 -15.4118 -12.7024 -8.22278 -15.4118
10949 1 -10.3887 -8.44795 -16.0726 23.2685 -8.44795 17.5847
2561 1 -6.02468 -16.0396 -14.4417 -6.02468 -16.0396 19.2155
921 1 -0.149331 -7.74121 -4.50582 -0.149331 -7.74121 -4.50582
16312 1 -0.102077 -9.99326 -15.9892 -0.102077 23.664 17.668
4172 1 -6.78221 -6.78087 -14.9825 -6.78221 26.8764 -14.9825
8503 1 -6.80657 -8.53931 -16.3364 -6.80657 -8.53931 -16.3364
1895 1 -4.92938 -8.45829 -16.3645 -4.92938 -8.45829 -16.3645
2250 1 -2.49193 -7.64489 -15.7855 -2.49193 -7.64489 17.8718
1884 1 -3.09939 -8.81385 -16.7291 -3.09939 -8.81385 -16.7291
4373 1 -0.744952 -7.31156 -15.9504 -0.744952 -7.31156 -15.9504
11189 1 -0.148527 -13.4938 -5.61291 -0.148527 -13.4938 -5.61291
7374 1 -13.3394 -5.25852 -16.2645 -13.3394 28.3987 17.3928
8616 1 -12.3696 -6.32194 -15.6763 -12.3696 -6.32194 -15.6763
7239 1 -10.1172 -7.36151 -15.5361 -10.1172 26.2957 18.1211
16305 1 -10.0026 -5.25718 -15.1804 -10.0026 -5.25718 18.4768
3881 1 -8.38085 -5.3108 -15.7169 -8.38085 -5.3108 17.9403
1639 1 -9.79026 -6.31535 -15.7174 -9.79026 -6.31535 -15.7174
5320 1 -5.74003 -5.93584 -15.2442 -5.74003 -5.93584 -15.2442
2185 1 -5.41615 -5.97458 -16.239 -5.41615 -5.97458 17.4182
5386 1 -2.98569 -5.61392 -15.7284 -2.98569 28.0433 -15.7284
8505 1 -4.30541 -5.74817 -16.6181 -4.30541 -5.74817 -16.6181
1152 1 -1.95875 -6.52609 -15.9288 -1.95875 -6.52609 17.7285
14411 1 -6.4335 -16.7896 -1.84143 -6.4335 16.8677 -1.84143
791 1 -15.8106 -5.00809 -15.9981 -15.8106 -5.00809 -15.9981
3029 1 -14.6893 -6.01501 -15.1319 -14.6893 -6.01501 18.5254
4648 1 -11.771 -4.90338 -15.8977 -11.771 -4.90338 -15.8977
729 1 -12.1057 -9.14356 -16.4363 -12.1057 -9.14356 17.221
4724 1 -10.3684 -3.63917 -15.8141 -10.3684 -3.63917 -15.8141
14832 1 -10.921 -5.59001 -15.3761 -10.921 -5.59001 18.2812
1700 1 -0.684482 -5.80189 -3.9174 -34.3417 -5.80189 -3.9174
1298 1 -9.61919 -16.8295 -8.89583 -9.61919 -16.8295 -8.89583
3832 1 -4.97852 -4.61888 -16.3767 -4.97852 -4.61888 17.2806
11421 1 -1.54064 -4.99754 -16.2019 32.1166 -4.99754 17.4554
11999 1 -0.76686 -16.3903 -16.4497 -0.76686 -16.3903 17.2076
11978 1 -0.385289 -5.82256 -15.7546 -0.385289 -5.82256 17.9027
2501 1 -1.80617 -16.7293 -14.0409 -1.80617 -16.7293 19.6164
4178 1 -15.9171 -3.8017 -15.3768 -15.9171 -3.8017 18.2804
1953 1 -15.3083 -4.04394 -16.6277 -15.3083 -4.04394 -16.6277
9864 1 -12.9954 -3.57257 -15.6625 -12.9954 -3.57257 -15.6625
5178 1 -11.753 -3.64246 -15.389 -11.753 -3.64246 -15.389
13690 1 -11.7598 -3.98818 -16.6819 21.8974 -3.98818 -16.6819
5740 1 -9.19705 -3.64805 -16.7314 -9.19705 -3.64805 -16.7314
3070 1 -8.99178 -3.95823 -15.4816 -8.99178 -3.95823 18.1757
1589 1 -8.48245 -2.97237 -15.6462 -8.48245 -2.97237 -15.6462
4321 1 -6.14923 -3.18124 -16.1795 -6.14923 -3.18124 -16.1795
8203 1 -6.58214 -4.90145 -15.7511 -6.58214 -4.90145 17.9062
1690 1 -3.04175 -3.75394 -16.025 -3.04175 -3.75394 -16.025
5308 1 -5.5172 -3.94438 -14.9665 -5.5172 -3.94438 -14.9665
4205 1 -3.47507 -2.51649 -14.1077 -3.47507 31.1408 -14.1077
160 1 -2.61634 -2.89834 -14.8188 -2.61634 -2.89834 -14.8188
15176 1 -0.196758 -9.45423 -2.08233 -0.196758 24.203 -2.08233
6916 1 -15.4923 -2.26683 -15.7581 18.1649 -2.26683 17.8992
4094 1 -14.149 -1.91192 -14.9898 -14.149 -1.91192 -14.9898
7075 1 -2.31146 -0.0118599 -15.9965 -2.31146 -0.0118599 17.6607
4005 1 -14.6498 -3.01914 -15.2096 -14.6498 -3.01914 18.4476
8128 1 -12.9805 -2.59162 -16.0676 -12.9805 -2.59162 17.5897
13904 1 -12.4533 -2.90146 -14.6082 -12.4533 -2.90146 -14.6082
5616 1 -11.5336 -2.86967 -16.39 -11.5336 -2.86967 -16.39
2927 1 -9.7611 -2.25519 -16.5283 -9.7611 -35.9124 17.129
13282 1 -8.86901 -2.0155 -14.9569 24.7882 -2.0155 -14.9569
6509 1 -6.50465 -1.63016 -16.1181 -6.50465 -1.63016 17.5392
1223 1 -0.579835 -5.01744 -4.84854 -0.579835 -5.01744 -4.84854
6586 1 -7.76483 -15.8597 -9.15458 -7.76483 17.7976 -9.15458
3802 1 -1.83789 -2.48564 -15.9311 -1.83789 -2.48564 17.7261
4974 1 -3.14863 -2.68858 -16.3359 -3.14863 -2.68858 -16.3359
1093 1 -0.67991 -2.27062 -16.7885 -0.67991 -2.27062 -16.7885
14925 1 -16.4562 -0.400404 -16.0563 17.2011 -0.400404 17.601
8155 1 -14.4034 -0.673881 -14.2925 -14.4034 -0.673881 19.3647
2597 1 -14.058 -1.28552 -15.9851 -14.058 -1.28552 17.6722
5623 1 -11.6863 -1.63017 -15.8531 -11.6863 -1.63017 -15.8531
12646 1 -13.1873 -16.2479 -4.54829 20.4699 17.4093 -4.54829
13317 1 -3.79535 -14.5131 -0.686502 29.8619 19.1441 -0.686502
5951 1 -9.35372 -1.1838 -15.6834 -9.35372 -1.1838 -15.6834
6119 1 -0.319399 -8.72884 -0.400527 -33.9767 -8.72884 -0.400527
4345 1 -7.80134 -1.0933 -16.1452 -7.80134 -1.0933 -16.1452
2505 1 -4.19117 -0.135525 -16.0588 -4.19117 -0.135525 17.5985
2547 1 -0.361344 -12.1335 -8.5882 -0.361344 -12.1335 25.0691
5383 1 -2.2805 -1.4757 -16.0508 -2.2805 -1.4757 -16.0508
13563 1 -0.40033 -1.0657 -15.7581 -0.40033 -1.0657 -15.7581
11107 1 -4.76613 -14.7362 -16.2533 28.8911 -14.7362 17.404
1176 1 -15.9104 -16.7008 -14.3975 -15.9104 -16.7008 -14.3975
13065 1 -15.6799 -15.6611 -14.7011 -15.6799 17.9962 -14.7011
15029 1 -13.8761 -16.5647 -14.2095 -13.8761 -16.5647 19.4477
12255 1 0.0200302 -0.898815 -12.725 0.0200302 -0.898815 20.9323
1743 1 -8.2153 -15.0434 -15.1684 -8.2153 -15.0434 -15.1684
16335 1 -16.731 -16.1196 -5.63219 16.9263 17.5376 -5.63219
10161 1 -7.37727 -15.8693 -15.2883 26.28 -15.8693 -15.2883
15789 1 -0.369639 -3.13582 -3.26372 -0.369639 -3.13582 -3.26372
4176 1 -16.8417 -6.07722 -13.0484 -16.8417 -6.07722 -13.0484
8868 1 -5.69701 -15.3788 -15.7492 -5.69701 -15.3788 -15.7492
7538 1 -4.60755 -15.785 -15.1698 -4.60755 17.8723 18.4874
5700 1 -4.69362 -16.3908 -14.3244 -4.69362 17.2665 -14.3244
4784 1 -0.815701 -4.89274 -7.21735 -0.815701 -4.89274 -7.21735
3819 1 -8.9288 -1.25454 -8.67254 -8.9288 -1.25454 24.9847
4862 1 -11.6525 -0.306543 -6.48332 -11.6525 -0.306543 -6.48332
8100 1 -14.2242 -15.0237 -13.535 -47.8815 18.6336 20.1222
2624 1 -13.8337 -15.3683 -14.393 -13.8337 -15.3683 19.2643
8965 1 -11.6229 -15.0896 -15.4414 22.0344 -15.0896 -15.4414
14931 1 -12.4257 -14.257 -14.1546 21.2316 19.4003 19.5027
7456 1 -10.2436 -13.7835 -15.2755 -10.2436 19.8737 -15.2755
934 1 -9.66713 -13.9203 -14.1822 -9.66713 -13.9203 -14.1822
3127 1 -8.24695 -13.4703 -14.5727 -8.24695 -13.4703 19.0846
16382 1 -7.17471 -15.824 -13.8118 -7.17471 17.8332 -13.8118
1925 1 -4.45335 -14.5713 -13.6552 -4.45335 -14.5713 -13.6552
13447 1 -2.6362 -13.6987 -15.6232 31.0211 19.9586 -15.6232
9630 1 -2.82087 -15.7895 -14.3955 -2.82087 -15.7895 -14.3955
3423 1 -0.632034 -16.5513 -14.5717 -0.632034 -16.5513 19.0856
12351 1 -0.727949 -14.6105 -14.062 32.9293 19.0468 -14.062
10168 1 -8.10297 -2.80214 -16.6828 25.5543 -2.80214 16.9745
1431 1 -15.052 -13.1865 -14.8595 -15.052 -13.1865 -14.8595
3649 1 -15.5101 -14.255 -13.9148 -15.5101 -14.255 19.7425
7042 1 -13.3074 -12.6507 -14.4364 -13.3074 21.0066 19.2209
4219 1 -13.9426 -14.0898 -14.1981 -13.9426 19.5674 -14.1981
1812 1 -13.2286 -13.4589 -15.4591 -13.2286 -13.4589 -15.4591
13813 1 -9.29442 -13.4276 -15.3279 24.3628 20.2296 -15.3279
1251 1 -10.6115 -13.5187 -13.7248 -10.6115 20.1385 -13.7248
1535 1 -8.03138 -13.6116 -16.1639 -8.03138 -13.6116 17.4933
597 1 -6.81447 -12.7738 -14.5374 -40.4717 -12.7738 19.1198
4689 1 -5.39549 -12.6876 -15.2648 -5.39549 -12.6876 -15.2648
357 1 -4.0268 -13.7147 -14.7398 -4.0268 -13.7147 -14.7398
9183 1 -1.55686 -12.8947 -14.5269 -1.55686 -12.8947 -14.5269
3551 1 -2.68368 -14.4596 -14.5881 -2.68368 -14.4596 -14.5881
9896 1 -1.01043 -14.055 -15.6647 -1.01043 -14.055 -15.6647
13271 1 -15.48 -11.6708 -14.1567 18.1773 21.9865 -14.1567
13836 1 -4.73746 -3.2849 -16.0117 28.9198 -3.2849 -16.0117
8786 1 -14.7565 -10.2432 -14.213 18.9008 -10.2432 -14.213
10172 1 -14.4252 -11.7677 -14.7737 19.2321 -11.7677 -14.7737
4665 1 -11.7479 -12.5207 -14.0474 -11.7479 21.1365 -14.0474
5923 1 -11.198 -12.9978 -15.1014 -11.198 -12.9978 -15.1014
9435 1 -8.44441 -12.2798 -15.2208 25.2128 -12.2798 -15.2208
733 1 -7.49444 -11.2451 -15.2058 -7.49444 -11.2451 -15.2058
4817 1 -7.20165 -13.8529 -15.653 -7.20165 19.8044 -15.653
8036 1 -6.85025 -11.4134 -13.7493 -6.85025 22.2439 19.908
951 1 -6.17041 -11.62 -14.8462 -6.17041 -11.62 -14.8462
8173 1 -4.37224 -12.3475 -15.0233 -4.37224 21.3097 18.6339
1521 1 -3.76947 -12.5553 -13.6998 -3.76947 -12.5553 -13.6998
8255 1 -2.84221 -12.155 -15.4547 -2.84221 -12.155 -15.4547
5990 1 -2.66854 -12.9252 -14.5941 -2.66854 -12.9252 -14.5941
3683 1 -1.8663 -11.3681 -16.0898 -1.8663 -11.3681 17.5674
148 1 -0.41786 -13.7904 -14.7511 -0.41786 -13.7904 -14.7511
12696 1 -16.8122 -10.7044 -14.0192 16.845 22.9529 -14.0192
12056 1 -15.0381 -9.20232 -14.9839 -15.0381 -9.20232 18.6733
11112 1 -13.9316 -12.7576 -15.9676 19.7257 -12.7576 17.6896
11856 1 -13.4158 -11.4229 -14.5487 20.2414 -11.4229 19.1086
1435 1 -12.5556 -11.3846 -15.1864 -12.5556 -11.3846 -15.1864
2261 1 -11.2443 -11.695 -14.9286 -11.2443 -11.695 18.7287
1802 1 -8.46935 -10.6545 -15.1055 -8.46935 -10.6545 -15.1055
1305 1 -7.85376 -10.1505 -16.0259 -7.85376 -10.1505 -16.0259
8083 1 -5.9223 -10.2603 -13.7066 -5.9223 -10.2603 19.9507
1537 1 -4.0326 -10.2186 -14.4408 -4.0326 -10.2186 -14.4408
12016 1 -2.45242 -10.8507 -15.1878 -2.45242 -10.8507 18.4694
995 1 -1.15767 -10.7623 -14.6056 -1.15767 -10.7623 -14.6056
10961 1 -2.34393 -11.6407 -14.0229 -2.34393 -11.6407 19.6343
8217 1 -0.834266 -11.9635 -14.8409 -0.834266 -11.9635 -14.8409
749 1 -16.1618 -9.14785 -13.3021 -16.1618 -9.14785 -13.3021
5025 1 -15.0216 -8.53325 -16.3563 -15.0216 -8.53325 -16.3563
15275 1 -12.3002 -9.12985 -14.725 21.3571 -9.12985 18.9322
5986 1 -13.7061 -10.1116 -14.9622 -13.7061 -10.1116 -14.9622
6982 1 -13.5014 -8.61315 -14.674 -13.5014 -8.61315 18.9833
14935 1 -12.3358 -9.21286 -13.2776 -12.3358 -9.21286 20.3797
14478 1 -11.1051 -9.42361 -14.1129 22.5521 24.2336 -14.1129
480 1 -9.67156 -9.6337 -14.7495 -9.67156 -9.6337 -14.7495
11538 1 -8.73801 -9.74946 -14.3294 24.9192 -9.74946 19.3278
4715 1 -7.88422 -8.58504 -14.332 -7.88422 25.0722 -14.332
2214 1 -5.99462 -10.189 -14.8988 -5.99462 -10.189 18.7584
11584 1 -5.98357 -8.68921 -14.5606 -5.98357 -8.68921 19.0966
10054 1 -4.7696 -8.68185 -15.0073 -4.7696 -8.68185 -15.0073
11381 1 -3.04203 -9.59696 -16.0669 30.6152 -9.59696 17.5904
310 1 -3.69799 -9.273 -15.152 -3.69799 -9.273 -15.152
8415 1 -1.33973 -9.09696 -15.19 -1.33973 -9.09696 -15.19
4796 1 -1.51715 -9.86969 -13.7337 -1.51715 -9.86969 -13.7337
15631 1 -16.234 -8.02109 -15.9331 17.4233 25.6362 17.7242
10724 1 -14.6335 -8.33984 -14.6898 -14.6335 -8.33984 18.9675
6334 1 -14.004 -7.46452 -14.2642 -14.004 -7.46452 19.393
740 1 -12.3235 -7.90355 -13.9898 -12.3235 -7.90355 -13.9898
741 1 -9.74346 -8.43745 -15.0119 -9.74346 -8.43745 -15.0119
1843 1 -8.61971 -7.38847 -14.4082 -8.61971 -7.38847 -14.4082
4995 1 -7.55134 -7.96224 -15.6206 -7.55134 -7.96224 -15.6206
1481 1 -3.8694 -8.06721 -15.8804 -3.8694 -8.06721 -15.8804
9002 1 -3.39153 -6.89103 -15.0745 -3.39153 -6.89103 -15.0745
7430 1 -2.50719 -8.95345 -15.2808 -2.50719 -8.95345 18.3764
2324 1 -1.31821 -7.41359 -14.9628 -1.31821 -7.41359 18.6945
2572 1 -14.9886 -6.09293 -16.2908 -14.9886 -6.09293 17.3664
1894 1 -15.9567 -6.42269 -15.4911 -15.9567 -6.42269 -15.4911
12159 1 -15.7931 -6.61325 -14.1763 -15.7931 -6.61325 19.4809
1912 1 -12.942 -7.05159 -14.8824 -12.942 -7.05159 -14.8824
2611 1 -11.3834 -6.42426 -13.7383 -11.3834 -6.42426 19.9189
7227 1 -10.7322 -5.69352 -12.9896 -10.7322 -5.69352 -12.9896
14402 1 -8.71296 -7.44478 -16.0172 24.9443 -7.44478 17.6401
12190 1 -8.31736 -6.39576 -15.2943 -8.31736 -6.39576 18.3629
3889 1 -6.68182 -6.07955 -13.501 -6.68182 -6.07955 -13.501
3130 1 -5.5964 -7.46455 -16.0456 -5.5964 -7.46455 17.6116
2117 1 -3.4103 -5.94217 -13.8765 -3.4103 -5.94217 -13.8765
15143 1 -2.3268 -5.92213 -14.6472 -2.3268 -5.92213 19.01
11717 1 -1.47271 -5.3243 -14.7828 -1.47271 -5.3243 -14.7828
10490 1 -16.6314 -5.68517 -15.7431 17.0258 -5.68517 17.9141
9678 1 -14.7942 -4.63054 -14.6756 18.863 -4.63054 -14.6756
9133 1 -14.6099 -5.79394 -13.8542 19.0474 -5.79394 -13.8542
4789 1 -14.1829 -4.61056 -15.8815 -14.1829 -4.61056 -15.8815
6501 1 -12.2929 -4.26056 -13.7095 -12.2929 -4.26056 19.9477
11013 1 -14.366 -4.67362 -13.7105 19.2912 -4.67362 19.9467
8921 1 -12.9492 -5.08687 -15.2692 -12.9492 -5.08687 -15.2692
9266 1 -11.5341 -5.02124 -14.6649 22.1231 -5.02124 -14.6649
15923 1 -9.35283 -4.10781 -14.4417 24.3044 -4.10781 19.2156
914 1 -8.06176 -4.63702 -14.7654 -8.06176 -4.63702 -14.7654
2873 1 -7.13786 -5.91677 -15.403 -7.13786 -5.91677 18.2542
1408 1 -5.86834 -5.06241 -14.6099 -5.86834 -5.06241 -14.6099
6214 1 -5.82616 -6.64322 -14.5149 -5.82616 -6.64322 19.1424
16068 1 -4.01096 -5.54311 -15.3079 29.6463 -5.54311 -15.3079
1590 1 -4.0874 -4.49497 -13.958 -4.0874 -4.49497 -13.958
10574 1 -1.79355 -4.23217 -14.9562 -1.79355 -4.23217 18.7011
10344 1 -14.6052 -7.11024 -16.7493 19.0521 -7.11024 16.9079
15893 1 -13.4202 -3.6398 -14.6724 -13.4202 -3.6398 18.9849
8744 1 -10.9283 -3.95079 -14.3393 22.7289 -3.95079 -14.3393
2264 1 -9.81165 -3.18731 -14.9527 -9.81165 -3.18731 18.7045
9756 1 -8.25616 -3.40241 -14.3824 25.4011 -37.0597 -14.3824
696 1 -6.86283 -4.83935 -14.0871 -6.86283 -4.83935 -14.0871
10958 1 -6.03341 -3.54354 -14.1093 -6.03341 -3.54354 19.548
13501 1 -3.61206 -3.41395 -14.8473 -3.61206 -3.41395 -14.8473
5248 1 -2.91231 -3.72531 -13.8943 -2.91231 -3.72531 -13.8943
573 1 -3.06981 -4.424 -15.2643 -3.06981 -4.424 -15.2643
4691 1 -1.6656 -3.37991 -13.1418 -1.6656 -3.37991 -13.1418
2049 1 -1.06549 -3.12853 -15.1437 -1.06549 -3.12853 18.5136
9935 1 -5.4117 -10.6485 -16.6171 28.2455 -10.6485 17.0401
4109 1 -1.10178 -3.75173 -16.4707 -1.10178 -3.75173 -16.4707
9060 1 -16.1625 -2.34324 -14.5299 17.4948 -2.34324 -14.5299
10751 1 -14.7246 -3.16954 -13.7185 18.9326 -3.16954 19.9388
266 1 -14.7359 -1.82532 -14.143 -14.7359 -1.82532 -14.143
4082 1 -13.1485 -1.78127 -14.4956 -13.1485 -1.78127 -14.4956
9221 1 -10.5862 -2.45938 -15.2952 -10.5862 -2.45938 -15.2952
12555 1 -11.2029 -1.73343 -14.6814 22.4544 -1.73343 -14.6814
4597 1 -7.57686 -4.08336 -15.7931 -7.57686 -4.08336 -15.7931
9395 1 -7.74066 -1.10754 -14.4029 25.9166 -1.10754 -14.4029
7703 1 -6.89348 -2.99438 -14.83 -6.89348 -2.99438 18.8272
6725 1 -5.86026 -2.16502 -14.9543 -5.86026 -2.16502 18.703
7424 1 -4.29964 -2.03798 -15.5834 -4.29964 31.6193 18.0739
676 1 -1.8888 -2.28629 -13.9569 -1.8888 -2.28629 -13.9569
5765 1 -1.1733 -1.82484 -14.9079 -1.1733 -1.82484 -14.9079
7877 1 -15.3986 -0.952602 -15.4254 -15.3986 -0.952602 18.2318
4266 1 -7.99605 -0.27432 -15.3695 -7.99605 33.3829 -15.3695
4869 1 -13.9566 -0.117702 -13.2152 -13.9566 -0.117702 -13.2152
11361 1 -11.4386 -0.619506 -13.8471 22.2186 -0.619506 19.8101
4349 1 -10.5991 -1.07828 -16.639 -10.5991 -1.07828 -16.639
6485 1 -10.7485 -0.295469 -15.5229 -10.7485 33.3618 18.1344
22 1 -9.6666 -0.851954 -14.5927 -9.6666 -0.851954 -14.5927
4470 1 -5.68554 -0.869258 -15.2544 -5.68554 -0.869258 -15.2544
7325 1 -4.9258 -1.46732 -14.2726 -4.9258 -1.46732 19.3846
14637 1 -4.94777 -0.0281697 -15.0163 -4.94777 -0.0281697 -15.0163
46 1 -2.17889 -1.27291 -14.8732 -2.17889 -1.27291 -14.8732
2429 1 -15.2836 -15.2808 -12.8276 -15.2836 -15.2808 20.8297
8046 1 -13.8689 -16.2449 -12.9812 -13.8689 17.4124 20.6761
2851 1 -11.8298 -16.4663 -13.7924 -11.8298 -16.4663 19.8649
5277 1 -16.4251 -2.48377 -3.13287 -16.4251 -2.48377 -3.13287
4054 1 -9.94542 -15.7574 -14.2849 -9.94542 -15.7574 19.3723
13962 1 -7.1166 -16.1389 -12.7101 26.5407 -16.1389 -12.7101
3411 1 -0.13397 -12.2823 -7.38542 -33.7912 -12.2823 -7.38542
11648 1 -5.49919 -15.0671 -13.7322 -5.49919 -15.0671 19.925
6349 1 -4.69712 -15.5299 -12.8897 -4.69712 18.1274 -12.8897
14054 1 -2.86132 -16.4731 -13.1155 -2.86132 17.1842 -13.1155
8669 1 -1.89544 -16.6712 -12.6666 -1.89544 -16.6712 -12.6666
3621 1 -16.4812 -8.91088 -5.69697 -16.4812 -8.91088 27.9603
14116 1 -8.35936 -6.47401 -16.7406 25.2979 27.1832 -16.7406
4947 1 -2.8183 -15.7886 -16.0209 -2.8183 17.8686 -16.0209
6879 1 -15.7253 -14.3291 -12.4277 -15.7253 19.3281 21.2295
1924 1 -14.6978 -14.6047 -12.0531 -14.6978 -14.6047 -12.0531
3063 1 -12.8894 -15.5144 -13.4616 -12.8894 -15.5144 20.1957
15758 1 -10.9004 -14.9593 -14.0395 22.7569 18.6979 -14.0395
124 1 -9.9945 -14.3703 -13.238 -9.9945 -14.3703 -13.238
7646 1 -8.1641 -15.5199 -13.7977 -8.1641 18.1374 19.8596
13952 1 -7.51193 -14.4084 -12.8391 -7.51193 19.2489 -12.8391
5388 1 -5.88351 -14.6083 -12.5349 -5.88351 19.0489 -12.5349
9433 1 -3.46312 -15.5578 -12.7886 -3.46312 -15.5578 -12.7886
1814 1 -1.71686 -15.4385 -13.4598 -1.71686 -15.4385 -13.4598
4720 1 -2.5065 -13.6968 -13.4367 -2.5065 19.9605 -13.4367
6566 1 -4.37792 -10.5744 -16.686 -4.37792 23.0829 16.9713
767 1 -14.4943 -13.663 -13.2319 -14.4943 -13.663 -13.2319
11865 1 -16.1515 -12.6786 -14.2473 17.5058 -12.6786 19.41
1290 1 -13.3963 -12.6326 -12.9924 -13.3963 -12.6326 -12.9924
13957 1 -11.7272 -13.5165 -13.3182 21.93 20.1408 -13.3182
4514 1 -10.1267 -12.3854 -12.7914 -10.1267 21.2719 -12.7914
11712 1 -9.36015 -12.2244 -13.477 24.2971 -12.2244 20.1802
523 1 -8.48474 -14.0922 -13.4383 -8.48474 -14.0922 -13.4383
4147 1 -6.23903 -13.7369 -13.5872 -6.23903 19.9203 -13.5872
3131 1 -6.30618 -12.7643 -12.6807 -6.30618 -12.7643 -12.6807
8402 1 -5.11036 -13.8119 -14.0188 -5.11036 -13.8119 -14.0188
2126 1 -3.77181 -13.5747 -13.0292 -3.77181 -13.5747 20.6281
4236 1 -3.29664 -12.7545 -12.3868 -3.29664 20.9028 -12.3868
15864 1 -1.8106 -12.1876 -12.2359 -1.8106 21.4697 21.4213
13584 1 -1.24924 -13.6757 -13.5263 -1.24924 19.9816 -13.5263
3878 1 -15.3258 -16.4873 -0.0447624 -15.3258 -16.4873 -0.0447624
2734 1 -8.0041 -16.7249 -12.3143 -8.0041 -16.7249 21.3429
12935 1 -16.1009 -12.8167 -13.0318 17.5563 -12.8167 -13.0318
14882 1 -14.863 -12.3967 -13.4883 18.7943 21.2605 20.169
6302 1 -14.1832 -11.3547 -12.8912 -14.1832 22.3026 -12.8912
336 1 -11.6618 -11.5478 -13.4793 -11.6618 -11.5478 -13.4793
1331 1 -12.6624 -11.8134 -13.6831 -12.6624 -11.8134 -13.6831
9845 1 -10.0055 -11.0849 -12.7943 23.6518 -11.0849 -12.7943
2488 1 -7.83736 -11.3853 -14.0235 -7.83736 -11.3853 19.6337
8850 1 -9.22297 -10.7747 -13.7998 24.4343 -10.7747 -13.7998
7848 1 -10.1454 -11.8589 -14.3107 -10.1454 21.7984 19.3466
10676 1 -8.11754 -12.6606 -13.3529 -8.11754 -12.6606 -13.3529
1016 1 -5.58375 -12.7141 -13.7282 -5.58375 -12.7141 -13.7282
12623 1 -4.67618 -11.1554 -13.6156 28.9811 22.5018 -13.6156
3618 1 -3.05377 -11.7469 -12.8775 -3.05377 -11.7469 20.7798
2710 1 -1.59221 -12.6281 -13.4347 -1.59221 -12.6281 20.2226
5634 1 -15.842 -4.76603 -0.516128 -15.842 -4.76603 -0.516128
1375 1 -16.3531 -10.3988 -12.6077 -16.3531 -10.3988 -12.6077
11606 1 -15.6699 -11.5816 -13.1056 17.9874 -11.5816 -13.1056
9577 1 -13.6837 -10.017 -13.8124 19.9735 -10.017 -13.8124
5720 1 -12.56 -10.2649 -13.8839 -12.56 23.3923 -13.8839
808 1 -9.69316 -10.7972 -11.788 -9.69316 -10.7972 -11.788
1761 1 -10.3283 -10.5806 -14.4556 -10.3283 -10.5806 -14.4556
899 1 -8.89469 -9.58785 -12.6723 -8.89469 -9.58785 -12.6723
1760 1 -7.78624 -10.2306 -13.4699 -7.78624 -10.2306 -13.4699
1461 1 -6.95818 -11.2054 -12.4668 -6.95818 -11.2054 -12.4668
6380 1 -3.54748 -10.5281 -12.9255 -3.54748 -10.5281 -12.9255
8172 1 -6.21964 -9.74608 -12.6933 -6.21964 -9.74608 -12.6933
6994 1 -2.20231 -10.8933 -12.7072 -2.20231 -10.8933 20.95
2687 1 -1.14652 -11.5285 -13.5837 -34.8038 -11.5285 -13.5837
2623 1 -15.9184 -8.95153 -12.2866 -15.9184 -8.95153 21.3706
3528 1 -14.5287 -9.02272 -13.8618 -14.5287 -9.02272 -13.8618
12169 1 -9.30229 -8.30662 -13.8833 -9.30229 -8.30662 -13.8833
192 1 -11.4028 -8.36598 -14.0766 -11.4028 -8.36598 -14.0766
6929 1 -9.04547 -8.1155 -11.9105 -9.04547 -8.1155 -11.9105
9124 1 -7.17352 -8.1266 -12.161 -7.17352 -8.1266 -12.161
3074 1 -6.86561 -9.44567 -13.921 -6.86561 -9.44567 19.7363
5290 1 -4.99785 -8.92941 -13.7731 -4.99785 -8.92941 -13.7731
4318 1 -3.94367 -9.21508 -13.8986 -3.94367 24.4422 -13.8986
13318 1 -3.39415 -8.13561 -13.2765 -3.39415 -8.13561 -13.2765
8804 1 -2.74321 -10.1492 -13.7076 -2.74321 -10.1492 -13.7076
15516 1 -2.1904 -8.9869 -12.9685 31.4668 -8.9869 20.6887
9957 1 -0.300747 -9.66574 -13.0614 -0.300747 -9.66574 -13.0614
4007 1 -15.7496 -8.12301 -14.8244 -15.7496 -8.12301 18.8328
10045 1 -3.15102 -16.6954 -0.767646 -3.15102 -16.6954 -0.767646
335 1 -14.8976 -8.70908 -12.7112 -14.8976 -8.70908 -12.7112
10037 1 -13.1333 -8.38505 -13.1321 -13.1333 -8.38505 -13.1321
1090 1 -11.7223 -7.6839 -13.1605 -11.7223 -7.6839 -13.1605
4978 1 -10.5033 -7.79572 -14.5357 -10.5033 -7.79572 -14.5357
3405 1 -7.82024 -8.7322 -12.6647 -7.82024 -8.7322 20.9925
2054 1 -10.1355 -6.48892 -14.2387 -10.1355 -6.48892 19.4186
3523 1 -9.53716 -7.83863 -12.8295 -9.53716 -7.83863 20.8277
5155 1 -7.46154 -7.40229 -14.1837 -7.46154 26.255 -14.1837
751 1 -6.52498 -8.09698 -13.2736 -6.52498 -8.09698 -13.2736
13517 1 -5.15279 -7.78539 -14.4229 -5.15279 25.8719 -14.4229
13632 1 -4.36173 -6.82168 -15.8051 -4.36173 -6.82168 -15.8051
10014 1 -4.10919 -7.55856 -13.8422 -4.10919 -7.55856 -13.8422
10259 1 -2.75739 -8.65954 -14.2769 -2.75739 -8.65954 -14.2769
11182 1 -2.75838 -7.66425 -12.5232 -2.75838 -7.66425 21.134
797 1 -0.493773 -7.06238 -13.9112 -0.493773 -7.06238 -13.9112
4581 1 -0.711739 -8.29258 -13.853 -0.711739 -8.29258 -13.853
9339 1 -15.6537 -7.98956 -13.3695 18.0035 -7.98956 -13.3695
8224 1 -14.2913 -7.75693 -13.2179 19.3659 -41.4142 -13.2179
2398 1 -13.0157 -5.96086 -14.3408 -13.0157 -5.96086 19.3165
8056 1 -8.60906 -5.71325 -14.5501 -8.60906 -5.71325 19.1072
3363 1 -10.6201 -5.75391 -11.9777 -10.6201 -5.75391 21.6795
13950 1 -8.99122 -5.58313 -13.2079 -8.99122 -5.58313 -13.2079
3005 1 -7.76156 -5.57998 -13.4098 -7.76156 -5.57998 20.2474
15708 1 -5.34499 -5.72407 -13.2542 -5.34499 -5.72407 20.4031
1887 1 -4.32524 -6.71757 -13.36 -4.32524 -6.71757 -13.36
12840 1 -3.06253 -5.75203 -12.1262 -3.06253 27.9052 -12.1262
3004 1 -2.01753 -7.45659 -13.8088 -2.01753 -7.45659 19.8484
15509 1 -1.13891 -5.99301 -13.6993 -1.13891 -5.99301 19.9579
4566 1 -2.8166 -6.65102 -13.2907 -2.8166 27.0062 -13.2907
13477 1 -2.01529 -6.22305 -12.2798 -2.01529 27.4342 -12.2798
12386 1 -14.7264 -4.63355 -12.4879 18.9308 -4.63355 -12.4879
10007 1 -16.6709 -15.3945 -14.0292 16.9863 -15.3945 -14.0292
7670 1 -15.9184 -5.36438 -14.3684 -15.9184 -5.36438 19.2889
8524 1 -13.3021 -4.66396 -14.0515 20.3551 -4.66396 -14.0515
8062 1 -13.8689 -6.05657 -13.1021 -13.8689 -6.05657 20.5552
2303 1 -12.5581 -6.74739 -12.8921 -12.5581 -6.74739 20.7652
8475 1 -12.7831 -5.41482 -13.3213 20.8741 -5.41482 -13.3213
1975 1 -10.1647 -4.72625 -14.2235 -10.1647 -4.72625 -14.2235
621 1 -6.79044 -4.59686 -12.9945 -6.79044 -4.59686 -12.9945
570 1 -8.12354 -4.18416 -13.4244 -8.12354 -4.18416 -13.4244
12350 1 -5.05681 -4.88063 -15.2845 -5.05681 28.7766 -15.2845
5563 1 -4.55168 -3.70275 -13.5362 -4.55168 -3.70275 -13.5362
9368 1 -4.27557 -5.51761 -12.9961 -4.27557 -5.51761 -12.9961
1702 1 -2.32685 -5.26989 -13.6504 -2.32685 -5.26989 -13.6504
1798 1 -1.02251 -4.88248 -13.3096 -1.02251 -4.88248 -13.3096
10568 1 -1.24871 -4.09513 -12.2186 -1.24871 -4.09513 21.4386
3468 1 -16.3293 -4.88582 -12.6421 -16.3293 -4.88582 21.0152
12427 1 -15.8547 -3.32564 -13.8474 17.8025 -3.32564 -13.8474
4903 1 -15.9247 -3.73212 -12.877 -15.9247 -3.73212 -12.877
737 1 -13.7875 -3.68207 -12.5813 -13.7875 -3.68207 -12.5813
9429 1 -11.6187 -3.31445 -13.0522 22.0385 -36.9717 -13.0522
8097 1 -10.5453 -2.53902 -13.3766 -10.5453 -2.53902 20.2806
5089 1 -9.68359 -3.57939 -13.3865 -9.68359 -3.57939 -13.3865
13603 1 -7.63803 -2.79919 -13.7445 -7.63803 -2.79919 -13.7445
11445 1 -5.73834 -3.76324 -12.7413 27.9189 -3.76324 20.9159
6588 1 -6.6766 -1.92744 -12.5419 -6.6766 -1.92744 21.1154
2248 1 -3.51673 -4.66766 -12.6545 -3.51673 -4.66766 -12.6545
5538 1 -2.16559 -4.86178 -12.694 -2.16559 -4.86178 -12.694
13191 1 -0.548981 -2.79884 -14.1478 -0.548981 -2.79884 19.5094
5181 1 -1.10804 -8.60389 -16.5273 -1.10804 25.0534 -16.5273
4452 1 -12.7048 -3.1324 -13.0671 -12.7048 -3.1324 -13.0671
1023 1 -13.8289 -2.03046 -13.368 -13.8289 -2.03046 -13.368
15602 1 -11.4374 -2.01848 -13.6753 22.2198 -2.01848 19.982
13678 1 -10.0881 -1.54515 -13.8203 -10.0881 -1.54515 -13.8203
9303 1 -9.14494 -2.35599 -13.9264 24.5123 -2.35599 -13.9264
6851 1 -7.77733 -0.914776 -12.6094 -7.77733 -0.914776 21.0479
1648 1 -4.73119 -3.19326 -14.428 -4.73119 -3.19326 -14.428
5052 1 -5.14646 -2.56586 -13.3069 -5.14646 -2.56586 -13.3069
324 1 -3.23868 -1.33535 -14.4175 -3.23868 -1.33535 -14.4175
13896 1 -3.71649 -2.914 -12.9135 -3.71649 -2.914 -12.9135
11792 1 -2.88862 -2.14971 -13.2016 -2.88862 -2.14971 20.4556
13395 1 -1.28225 -2.30711 -12.4383 -1.28225 -2.30711 -12.4383
13163 1 -15.9056 -2.26874 -12.9191 17.7516 -2.26874 -12.9191
2936 1 -15.4628 -0.592316 -12.5933 -15.4628 -0.592316 21.064
6981 1 -12.5384 -0.392428 -13.3309 -12.5384 -0.392428 20.3263
1503 1 -12.395 -1.66244 -13.8288 -12.395 -35.3197 -13.8288
5666 1 -11.7016 -0.623665 -12.3976 -11.7016 -0.623665 -12.3976