ITEM: TIMESTEP
2500
ITEM: NUMBER OF ATOMS
16384
ITEM: BOX BOUNDS pp pp pp
-1.6828627036276380e+01 1.6828627036276380e+01
-1.6828627036276380e+01 1.6828627036276380e+01
-1.6828627036276380e+01 1.6828627036276380e+01
ITEM: ATOMS id type x y z xu yu zu
6678 1 -15.6313 -14.9754 -15.9694 -15.6313 18.6819 17.6879
671 1 -14.6551 -16.3336 -15.7716 -14.6551 -16.3336 -15.7716
13919 1 -13.8846 -16.6536 -16.6291 19.7727 17.0036 -16.6291
2851 1 -12.4905 -16.54 -16.162 -12.4905 -16.54 17.4953
4401 1 -0.338809 -15.7007 -9.1156 -0.338809 17.9566 -9.1156
4514 1 -10.0723 -14.9146 -16.2169 -10.0723 18.7427 -16.2169
7130 1 -8.91849 -15.4102 -16.3211 -8.91849 18.2471 17.3361
1249 1 -0.0320793 -14.8534 -3.09427 -0.0320793 -14.8534 -3.09427
1326 1 -16.6394 -11.5904 -1.07759 -16.6394 -11.5904 -1.07759
9435 1 -7.8555 -15.9412 -16.2274 25.8018 -15.9412 -16.2274
11648 1 -4.84019 -15.1221 -15.1786 -4.84019 -15.1221 18.4786
7035 1 -4.1727 -15.8845 -16.3155 -4.1727 17.7727 17.3417
6376 1 -4.76964 -16.359 -15.5348 -4.76964 17.2983 18.1224
7038 1 -2.85064 -16.5542 -16.5228 -2.85064 17.103 17.1345
8260 1 -2.15288 -15.2992 -16.0063 -2.15288 -15.2992 -16.0063
11707 1 -10.5249 -0.119468 -2.49563 23.1323 -0.119468 31.1616
146 1 -16.6657 -14.8224 -16.4634 -16.6657 -14.8224 -16.4634
6038 1 -16.2367 -16.352 -15.3418 -16.2367 17.3053 18.3155
9407 1 -12.8973 -14.2471 -16.7429 20.7599 -14.2471 -16.7429
554 1 -14.056 -15.0381 -15.99 -14.056 -15.0381 -15.99
14882 1 -10.9779 -15.5405 -15.2133 22.6793 18.1167 18.444
8100 1 -11.5775 -14.6324 -16.3612 -45.2347 19.0249 17.296
8965 1 -9.24303 -14.0086 -16.4752 24.4142 -14.0086 -16.4752
1535 1 -7.85224 -14.3763 -16.3034 -7.85224 -14.3763 17.3539
8868 1 -6.43652 -15.18 -15.2185 -6.43652 -15.18 -15.2185
16382 1 -5.53202 -14.2336 -16.1495 -5.53202 19.4236 -16.1495
4572 1 -4.14548 -14.613 -16.478 -4.14548 19.0442 -16.478
8669 1 -3.13761 -15.1866 -15.4444 -3.13761 -15.1866 -15.4444
5300 1 -2.12706 -14.0241 -16.5155 -2.12706 19.6332 -16.5155
15718 1 -0.541383 -15.5699 -15.4325 -0.541383 18.0873 -15.4325
15279 1 -0.76751 -14.4397 -15.4702 -0.76751 19.2175 18.187
11649 1 -15.5852 -13.9674 -15.6346 18.0721 -13.9674 18.0226
4805 1 -12.2221 -0.0610579 -4.77646 -12.2221 -0.0610579 -4.77646
15107 1 -14.4031 -14.0403 -15.9198 19.2542 -14.0403 17.7375
2051 1 -15.2776 -12.5343 -16.0216 -15.2776 -12.5343 17.6357
8786 1 -11.6645 -12.9426 -15.5659 21.9927 -12.9426 -15.5659
5496 1 -0.0730645 -3.92713 -6.78936 -0.0730645 -3.92713 -6.78936
11871 1 -1.46161 -0.15532 -10.0485 -1.46161 -0.15532 23.6088
4859 1 -8.26976 -12.9175 -16.1735 -8.26976 20.7398 -16.1735
13414 1 -14.4471 -16.2581 -3.49334 19.2102 17.3991 -3.49334
10691 1 -4.83189 -13.5497 -15.1948 28.8254 -13.5497 18.4625
3524 1 -16.8223 -11.5281 -11.346 -16.8223 -11.5281 22.3113
8255 1 -3.64277 -13.3138 -15.9557 -3.64277 -13.3138 -15.9557
5221 1 -2.73912 -13.1968 -16.7677 -2.73912 20.4605 -16.7677
9099 1 -1.96745 -12.8473 -15.9346 -1.96745 -12.8473 -15.9346
8540 1 -0.114967 -13.0289 -15.617 -0.114967 -13.0289 -15.617
12696 1 -16.0238 -11.1525 -15.8939 17.6335 22.5047 -15.8939
15011 1 -6.5015 -16.5819 -5.75879 27.1558 17.0753 -5.75879
1566 1 -15.1005 -11.8597 -16.7525 -15.1005 -11.8597 -16.7525
12827 1 -13.5902 -11.4365 -15.3318 -13.5902 22.2207 -15.3318
1251 1 -10.8555 -12.2297 -16.3648 -10.8555 21.4275 -16.3648
6579 1 -12.7087 -12.4871 -15.811 -12.7087 21.1701 17.8462
13813 1 -9.49664 -11.7811 -15.682 24.1606 21.8762 -15.682
6523 1 -7.83704 -11.7038 -15.9128 -7.83704 21.9534 17.7444
992 1 -3.60525 -0.0411012 -7.27971 -3.60525 -0.0411012 -7.27971
357 1 -5.54643 -12.419 -15.5245 -5.54643 -12.419 -15.5245
2426 1 -6.35687 -12.0048 -16.3035 -6.35687 -12.0048 17.3538
8860 1 -4.44837 -12.0255 -15.5844 -4.44837 -12.0255 -15.5844
1925 1 -4.08132 -12.6577 -16.7245 -4.08132 -12.6577 -16.7245
13157 1 -2.97983 -11.8737 -15.946 -2.97983 21.7835 -15.946
9156 1 -16.8 -12.6149 -8.30639 16.8573 -12.6149 -8.30639
12244 1 -1.86486 -11.0131 -15.9992 31.7924 -11.0131 17.658
642 1 -1.02525 -11.7639 -16.1236 -1.02525 -11.7639 -16.1236
1375 1 -16.1616 -9.60154 -15.436 -16.1616 -9.60154 -15.436
9310 1 -16.8156 -6.42733 -0.427387 16.8417 -6.42733 -0.427387
13271 1 -13.5289 -9.54086 -15.0593 20.1283 24.1164 -15.0593
4219 1 -12.3473 -10.8614 -15.7159 -12.3473 22.7958 -15.7159
3519 1 -11.7232 -11.3012 -16.4505 -11.7232 -11.3012 17.2067
2341 1 -10.0419 -10.4517 -16.7093 -10.0419 -10.4517 16.948
3722 1 -8.10466 -10.8765 -15.048 -8.10466 -10.8765 18.6092
1426 1 -6.67199 -10.6545 -16.028 -6.67199 -10.6545 -16.028
8173 1 -5.65472 -10.7736 -15.3507 -5.65472 22.8836 18.3066
13956 1 -15.4429 -0.597377 -13.8246 18.2144 -0.597377 -13.8246
8402 1 -3.92955 -11.496 -16.4716 -3.92955 -11.496 -16.4716
6944 1 -3.1427 -10.4946 -15.6976 -3.1427 23.1627 17.9597
10961 1 -1.67196 -9.94877 -16.3234 -1.67196 -9.94877 17.3338
8956 1 -0.779412 -10.7367 -16.561 -0.779412 -10.7367 -16.561
12192 1 -14.7956 -8.51679 -16.5982 18.8617 -8.51679 17.059
179 1 -12.7723 -9.41522 -16.271 -12.7723 -9.41522 -16.271
5503 1 -11.5609 -9.83287 -16.6324 -11.5609 23.8244 -16.6324
1386 1 -5.3443 -11.7197 -0.0223135 -5.3443 -11.7197 -0.0223135
1438 1 -9.50725 -9.06782 -15.8046 -9.50725 -9.06782 -15.8046
503 1 -8.50004 -10.047 -15.6636 -8.50004 -10.047 -15.6636
5078 1 -5.78289 -16.7793 -2.48383 -5.78289 16.878 -2.48383
1305 1 -5.96673 -9.17645 -15.8393 -5.96673 -9.17645 -15.8393
10054 1 -4.69132 -9.61082 -16.5153 -4.69132 -9.61082 -16.5153
11149 1 -3.25885 -9.47163 -16.2821 -3.25885 -9.47163 17.3752
12289 1 -1.75597 -8.36021 -15.9138 -1.75597 25.297 17.7435
394 1 -16.2289 -8.37311 -15.9966 -16.2289 -8.37311 -15.9966
8831 1 -15.2163 -7.78191 -15.5332 18.4409 -7.78191 -15.5332
2623 1 -14.4897 -7.31748 -16.6483 -14.4897 -7.31748 17.0089
53 1 -14.2976 -8.42794 -15.0764 -14.2976 -42.0852 -15.0764
14935 1 -13.4269 -6.73223 -16.2241 -13.4269 -6.73223 17.4332
12522 1 -12.2469 -7.90586 -16.3987 -12.2469 -7.90586 -16.3987
5025 1 -11.1168 -7.75045 -16.0296 -11.1168 -7.75045 -16.0296
2261 1 -9.45395 -8.42927 -14.8373 -9.45395 -8.42927 18.82
11538 1 -8.46814 -7.52264 -15.1159 25.1891 -7.52264 18.5414
1760 1 -7.28323 -8.08011 -16.0137 -7.28323 -8.08011 -16.0137
7530 1 -8.34163 -8.57257 -15.9007 -8.34163 -8.57257 17.7566
7639 1 -6.17697 -8.24676 -16.5157 -6.17697 -8.24676 17.1415
11118 1 -12.6232 -16.4762 -2.76836 21.0341 -16.4762 -2.76836
8503 1 -3.00708 -8.04286 -16.2932 -3.00708 -8.04286 -16.2932
1256 1 -0.144186 -8.27633 -16.0203 -0.144186 -8.27633 -16.0203
13080 1 -0.651442 -7.76179 -15.0242 -0.651442 25.8955 -15.0242
3511 1 -15.9672 -5.51161 -16.4897 -15.9672 -5.51161 17.1676
1953 1 -14.4887 -5.54923 -16.0735 -14.4887 -5.54923 -16.0735
6982 1 -11.9127 -6.58827 -16.4669 -11.9127 -6.58827 17.1903
1639 1 -10.4987 -6.81015 -15.2404 -10.4987 -6.81015 -15.2404
9864 1 -10.2514 -6.98369 -16.5882 -10.2514 -6.98369 -16.5882
8191 1 -8.26049 -5.5451 -16.4755 -8.26049 -5.5451 17.1817
6382 1 -3.3415 -0.327641 -2.23611 -3.3415 -0.327641 -2.23611
2873 1 -6.58191 -6.69464 -15.3549 -6.58191 -6.69464 18.3024
11381 1 -4.78037 -6.16099 -15.6668 28.8769 -6.16099 17.9904
81 1 -3.35287 -5.59356 -16.7261 -3.35287 -5.59356 -16.7261
12283 1 -4.06494 -7.16054 -15.7906 -4.06494 -7.16054 17.8667
5386 1 -2.88125 -6.88505 -15.4932 -2.88125 26.7722 -15.4932
10316 1 -1.99971 -6.64003 -16.5747 -1.99971 -6.64003 17.0826
3649 1 -13.4935 -11.0181 -16.7574 -13.4935 -11.0181 16.8999
2394 1 -6.24295 -16.7686 -10.9668 -6.24295 -16.7686 -10.9668
10751 1 -15.9823 -3.98931 -15.8445 17.675 -3.98931 17.8128
1965 1 -14.854 -4.50923 -16.3561 -14.854 -4.50923 -16.3561
10069 1 -13.0852 -5.19883 -15.2122 20.572 -5.19883 -15.2122
3029 1 -12.1881 -4.83705 -16.3861 -12.1881 -4.83705 17.2711
3070 1 -11.1806 -4.75108 -15.7061 -11.1806 -4.75108 17.9512
1912 1 -10.1436 -4.57803 -16.325 -10.1436 -4.57803 -16.325
3405 1 -9.43114 -5.18125 -15.3816 -9.43114 -5.18125 18.2757
4995 1 -6.82627 -5.34643 -16.2627 -6.82627 -5.34643 -16.2627
9102 1 -5.86546 -5.49193 -15.6756 -5.86546 -5.49193 -15.6756
2185 1 -4.07915 -4.21847 -15.3428 -4.07915 -4.21847 18.3144
15509 1 -3.02762 -4.22367 -15.4342 -3.02762 -4.22367 18.2231
4774 1 -16.5279 -16.6536 -2.12763 -16.5279 17.0036 -2.12763
1884 1 -1.02703 -5.51191 -15.9174 -1.02703 -5.51191 -15.9174
1707 1 -16.6907 -3.81713 -14.9483 -16.6907 -3.81713 -14.9483
4094 1 -15.3788 -2.95939 -16.1639 -15.3788 -2.95939 -16.1639
12571 1 -1.66027 -16.5416 -15.9194 -1.66027 17.1157 -15.9194
11112 1 -13.6707 -4.58642 -16.1038 19.9865 -4.58642 17.5534
2303 1 -12.0483 -2.74957 -16.4456 -12.0483 -2.74957 17.2117
4789 1 -12.6567 -3.41065 -15.5619 -12.6567 -3.41065 -15.5619
4724 1 -10.5294 -3.91538 -15.4621 -10.5294 -3.91538 -15.4621
1816 1 -10.491 -3.20148 -16.4156 -10.491 -3.20148 -16.4156
4321 1 -8.08293 -3.7397 -14.9543 -8.08293 -3.7397 -14.9543
4597 1 -7.78738 -4.03482 -16.4496 -7.78738 -4.03482 -16.4496
160 1 -6.85131 -2.39189 -15.7559 -6.85131 -2.39189 -15.7559
3424 1 -5.43292 -4.27382 -16.065 -5.43292 -4.27382 17.5923
6214 1 -4.08221 -3.53694 -16.3972 -4.08221 -3.53694 17.26
2049 1 -2.49932 -3.32714 -16.5948 -2.49932 -3.32714 17.0625
13292 1 -1.91399 -4.28232 -16.1314 -1.91399 -4.28232 -16.1314
1169 1 -0.138136 -4.28298 -15.5985 -0.138136 -4.28298 -15.5985
11013 1 -14.0501 -2.2381 -16.5968 19.6071 -2.2381 17.0604
15950 1 -13.6345 -3.43956 -16.0191 20.0227 -3.43956 17.6382
13690 1 -11.1525 -2.33164 -15.5491 22.5048 -2.33164 -15.5491
2505 1 -8.39983 -2.93545 -15.8899 -8.39983 -2.93545 17.7673
15923 1 -9.92094 -2.26363 -15.1271 23.7363 -2.26363 18.5302
9756 1 -8.96259 -1.52082 -16.0142 24.6947 -35.1781 -16.0142
2110 1 -7.23395 -1.4508 -16.7405 -7.23395 -1.4508 16.9167
5009 1 -11.6515 -16.6957 -9.61732 -11.6515 16.9615 -9.61732
5248 1 -5.60169 -2.96733 -16.6083 -5.60169 -2.96733 -16.6083
5575 1 -3.28511 -2.22555 -16.6968 -3.28511 -2.22555 -16.6968
10588 1 -15.4057 -16.7047 -3.06644 -15.4057 -16.7047 -3.06644
597 1 -9.26141 -7.96248 -16.5591 -42.9187 -7.96248 17.0982
13191 1 -0.682521 -3.17727 -16.1109 -0.682521 -3.17727 17.5464
9060 1 -16.2537 -0.35738 -16.1086 17.4035 -0.35738 -16.1086
6473 1 -16.0834 -1.6951 -15.5741 -16.0834 -1.6951 -15.5741
12653 1 -3.45674 -2.2698 -0.315013 -3.45674 -2.2698 -0.315013
7160 1 -14.651 -0.379339 -16.5413 -14.651 -0.379339 17.1159
8128 1 -13.7742 -0.860843 -16.0352 -13.7742 -0.860843 17.622
3869 1 -12.0153 -1.12239 -16.3021 -12.0153 -1.12239 17.3552
11507 1 -10.1548 -1.60746 -15.8802 23.5025 -1.60746 17.777
12420 1 -9.77101 -0.567242 -16.4098 23.8862 -0.567242 -16.4098
6430 1 -7.29262 -0.309303 -16.1215 -7.29262 -0.309303 17.5357
5308 1 -5.93799 -1.01891 -15.4249 -5.93799 -1.01891 -15.4249
1690 1 -4.58188 -1.81778 -16.143 -4.58188 -1.81778 -16.143
4411 1 -5.929 -1.10308 -16.6274 -5.929 -1.10308 -16.6274
573 1 -3.35549 -1.01654 -16.0477 -3.35549 -1.01654 -16.0477
9315 1 -0.546055 -16.1389 -5.4079 -0.546055 -16.1389 -5.4079
1119 1 -0.712206 -1.28037 -16.0372 -0.712206 -1.28037 -16.0372
9210 1 -16.5703 -15.6628 -13.3927 17.087 -15.6628 -13.3927
9535 1 -15.2267 -16.3324 -14.7945 18.4306 -16.3324 -14.7945
15121 1 -13.4744 -15.737 -15.3656 20.1828 17.9203 18.2917
15758 1 -13.8328 -15.0864 -14.5065 19.8244 18.5709 -14.5065
12986 1 -12.0043 -15.8968 -14.5261 -12.0043 17.7605 -14.5261
9818 1 -10.6969 -16.601 -15.1112 22.9603 -16.601 -15.1112
10044 1 -9.55671 -16.2934 -14.8828 -9.55671 17.3638 -14.8828
8301 1 -8.51302 -16.792 -15.0074 -8.51302 -16.792 -15.0074
249 1 -4.39555 -13.6323 -0.205361 -4.39555 -13.6323 -0.205361
9119 1 -7.63182 -16.2475 -14.3227 -7.63182 -16.2475 -14.3227
3293 1 -5.87273 -16.2581 -15.4502 -5.87273 -16.2581 18.207
10321 1 -3.79322 -16.0701 -14.2243 -3.79322 -16.0701 19.4329
5159 1 -2.60002 -15.9159 -14.8268 -2.60002 17.7414 -14.8268
4720 1 -2.79332 -14.3477 -14.3335 -2.79332 19.3096 -14.3335
2354 1 -1.42163 -15.7328 -14.8544 -1.42163 -15.7328 18.8029
6113 1 -0.619393 -16.7403 -15.3413 -0.619393 16.9169 -15.3413
1978 1 -14.007 -12.835 -16.672 -14.007 -12.835 -16.672
6965 1 -14.8893 -14.4292 -14.8357 -14.8893 19.228 18.8216
2372 1 -14.2055 -13.9966 -13.8098 -14.2055 -13.9966 19.8474
1740 1 -12.064 -14.7762 -14.3044 21.5932 -14.7762 -14.3044
15064 1 -10.12 -14.504 -15.0791 23.5372 -14.504 18.5781
9845 1 -8.99852 -14.3618 -13.6828 24.6587 -14.3618 -13.6828
74 1 -8.27117 -15.1724 -14.7698 -8.27117 -15.1724 -14.7698
523 1 -7.70332 -13.9582 -14.6112 -7.70332 -13.9582 -14.6112
5916 1 -5.38686 -15.2845 -13.8728 -5.38686 18.3728 -13.8728
8719 1 -4.0498 -14.3156 -14.8649 -4.0498 -14.3156 -14.8649
2126 1 -1.69415 -14.3752 -15.0587 -1.69415 -14.3752 18.5985
7898 1 -0.0781245 -14.7941 -14.4823 -0.0781245 18.8631 19.1749
13955 1 -16.5365 -14.4329 -14.1456 17.1208 19.2243 -14.1456
1176 1 -15.4509 -13.3509 -14.1659 -15.4509 -13.3509 -14.1659
3581 1 -12.8332 -14.2281 -15.168 -12.8332 -14.2281 18.4892
7900 1 -12.5577 -13.2364 -14.457 -12.5577 20.4209 19.2002
14187 1 -11.0501 -13.8007 -14.5017 22.6071 19.8566 -14.5017
11190 1 -10.16 -13.1604 -15.6714 -10.16 -13.1604 17.9858
1435 1 -9.86271 -13.2327 -13.8154 -9.86271 -13.2327 -13.8154
4054 1 -8.70843 -13.9027 -14.9169 -8.70843 -13.9027 18.7403
4147 1 -7.16878 -12.7732 -14.3925 -7.16878 20.884 -14.3925
9137 1 -7.15541 -12.8549 -15.6613 -7.15541 -12.8549 -15.6613
3127 1 -6.48258 -13.8548 -15.2461 -6.48258 -13.8548 18.4112
1429 1 -4.16341 -13.7624 -13.8581 -4.16341 -13.7624 -13.8581
5100 1 -5.78684 -14.1984 -14.3352 -5.78684 19.4588 -14.3352
9433 1 -3.18384 -12.7981 -13.9134 -3.18384 -12.7981 -13.9134
12146 1 -2.92852 -13.8414 -15.384 -2.92852 -13.8414 18.2733
7644 1 -2.30001 -12.7681 -14.6302 -2.30001 20.8892 19.027
9415 1 -16.4196 -12.8051 -14.9176 17.2376 -12.8051 -14.9176
11606 1 -16.4296 -11.9985 -13.9423 17.2277 -11.9985 -13.9423
5296 1 -13.7555 -12.5339 -15.0361 -13.7555 21.1234 -15.0361
2488 1 -10.7712 -12.5866 -14.704 -10.7712 -12.5866 18.9533
1331 1 -9.51134 -11.9017 -14.3807 -9.51134 -11.9017 -14.3807
7848 1 -8.68125 -12.6565 -14.7126 -8.68125 21.0007 18.9446
1461 1 -8.39148 -11.5637 -14.35 -8.39148 -11.5637 -14.35
15864 1 -6.43582 -11.8859 -14.1646 -6.43582 21.7713 19.4926
8036 1 -7.19911 -11.3768 -14.7445 -7.19911 22.2804 18.9127
12016 1 -3.49283 -11.7236 -14.6762 -3.49283 -11.7236 18.981
5990 1 -4.60414 -12.8232 -14.0473 -4.60414 -12.8232 -14.0473
9896 1 -1.67779 -11.6359 -14.8754 -1.67779 -11.6359 -14.8754
8922 1 -0.829424 -12.5156 -14.9075 -0.829424 -12.5156 -14.9075
10949 1 -8.21141 -9.43894 -16.7292 25.4458 -9.43894 16.928
11966 1 -16.0588 -12.7584 -16.7872 17.5985 -12.7584 16.87
7931 1 -15.4254 -10.9242 -14.2239 -15.4254 22.7331 19.4333
2548 1 -14.8899 -10.7599 -15.924 -14.8899 -10.7599 17.7333
11856 1 -14.2741 -11.0571 -14.4947 19.3832 -11.0571 19.1626
1175 1 -11.3866 -9.805 -14.8996 -11.3866 -9.805 -14.8996
8215 1 -12.4346 -10.4998 -14.6005 -12.4346 23.1574 19.0568
4235 1 -10.5245 -10.9223 -15.2497 -10.5245 22.735 18.4075
733 1 -9.3983 -10.2589 -14.4712 -9.3983 -10.2589 -14.4712
6380 1 -8.24178 -9.90808 -13.8327 -8.24178 -9.90808 -13.8327
3074 1 -5.96602 -10.7545 -14.2523 -5.96602 -10.7545 19.4049
3551 1 -4.21042 -10.6284 -15.1089 -4.21042 -10.6284 -15.1089
1895 1 -4.88178 -10.4573 -13.8641 -4.88178 -10.4573 -13.8641
7037 1 -3.50124 -9.35098 -14.0037 -3.50124 24.3063 19.6535
6428 1 -0.97523 -9.87943 -15.0562 -0.97523 23.7778 18.6011
15709 1 -0.549723 -9.80969 -16.0176 -0.549723 23.8476 -16.0176
10344 1 -15.2254 -9.04628 -15.5335 18.4318 -9.04628 18.1238
3528 1 -13.1028 -8.57404 -14.6445 -13.1028 -8.57404 -14.6445
12056 1 -14.6005 -9.93219 -14.5736 -14.6005 -9.93219 19.0837
13617 1 -11.7769 -9.23096 -15.8419 -11.7769 24.4263 -15.8419
808 1 -10.3599 -9.04502 -14.8451 -10.3599 -9.04502 -14.8451
12045 1 -11.4812 -8.3753 -14.5288 22.176 -8.3753 19.1285
1536 1 -8.98821 -9.27465 -14.2868 -8.98821 -9.27465 -14.2868
10984 1 -7.57631 -9.33523 -14.9055 26.0809 -9.33523 18.7517
389 1 -5.72362 -8.95949 -14.1547 -5.72362 -8.95949 -14.1547
8083 1 -4.95143 -9.65193 -14.6476 -4.95143 -9.65193 19.0096
751 1 -4.14538 -8.92997 -15.6521 -4.14538 -8.92997 -15.6521
8415 1 -2.40841 -9.77523 -15.6739 -2.40841 -9.77523 -15.6739
616 1 -0.506557 -8.89735 -14.9093 -0.506557 -8.89735 -14.9093
7965 1 -0.466134 -4.73684 -16.7025 -0.466134 28.9204 16.9547
2361 1 -14.8737 -7.155 -14.4455 -14.8737 -7.155 19.2117
335 1 -12.2468 -7.83774 -15.0207 -12.2468 -7.83774 -15.0207
5423 1 -10.3582 -7.50413 -14.5027 -10.3582 -7.50413 -14.5027
2147 1 -8.88151 -7.71583 -13.5809 -8.88151 -7.71583 20.0763
12169 1 -7.96027 -8.4708 -14.0285 -7.96027 -8.4708 -14.0285
9124 1 -6.86403 -8.35562 -14.5116 -6.86403 -8.35562 -14.5116
1843 1 -6.17931 -7.84817 -15.3365 -6.17931 -7.84817 -15.3365
4295 1 -4.90916 -8.34842 -15.2163 -4.90916 -8.34842 -15.2163
310 1 -4.00427 -8.01471 -14.3246 -4.00427 -8.01471 -14.3246
11584 1 -2.35635 -8.52841 -14.8943 -2.35635 -8.52841 18.763
13829 1 -0.513527 -8.25743 -13.5269 -0.513527 -8.25743 -13.5269
13260 1 -16.3048 -6.42597 -15.0295 17.3525 27.2313 -15.0295
13987 1 -15.8739 -5.049 -14.3203 17.7833 -5.049 -14.3203
8057 1 -15.0213 -6.34164 -15.5724 -15.0213 -6.34164 -15.5724
6334 1 -13.479 -6.24941 -15.2383 -13.479 -6.24941 18.419
11708 1 -13.637 -6.84787 -14.3172 -13.637 -6.84787 19.3401
480 1 -11.519 -6.79267 -14.6853 -11.519 -6.79267 -14.6853
12503 1 -9.41372 -6.74294 -15.8503 24.2435 26.9143 -15.8503
1975 1 -8.90779 -5.44978 -14.1707 -8.90779 -5.44978 -14.1707
2611 1 -8.0784 -5.91626 -14.9279 -8.0784 -5.91626 18.7293
205 1 -8.37443 -6.91024 -14.0923 -8.37443 -6.91024 -14.0923
7366 1 -7.1249 -6.6741 -14.2183 -7.1249 -6.6741 19.439
3004 1 -5.8573 -6.83771 -14.6479 -5.8573 -6.83771 19.0093
8505 1 -3.78659 -6.12829 -14.8187 -3.78659 -6.12829 -14.8187
5563 1 -3.06128 -6.68699 -14.1176 -3.06128 -6.68699 -14.1176
5261 1 -2.07164 -6.92275 -14.2403 -2.07164 -6.92275 -14.2403
2250 1 -1.2142 -6.60083 -15.2737 -1.2142 -6.60083 18.3835
4619 1 -16.4735 -5.36151 -15.4989 -16.4735 -5.36151 -15.4989
4711 1 -14.3108 -5.69677 -14.7747 -14.3108 27.9605 -14.7747
5522 1 -12.7144 -5.21629 -14.0145 -12.7144 -5.21629 -14.0145
6 1 -10.3931 -4.41464 -14.3866 -10.3931 -4.41464 -14.3866
13798 1 -11.8946 -5.72166 -14.8686 21.7626 27.9356 -14.8686
8056 1 -7.0886 -4.75087 -15.2928 -7.0886 -4.75087 18.3645
1866 1 -7.88265 -4.74015 -14.2317 -7.88265 -4.74015 -14.2317
621 1 -5.54045 -4.02398 -14.4371 -5.54045 -4.02398 -14.4371
3263 1 -7.01522 -3.84021 -14.3066 -7.01522 -3.84021 19.3507
10259 1 -4.81306 -5.43497 -13.775 -4.81306 -5.43497 -13.775
11792 1 -2.77989 -4.19946 -13.9668 -2.77989 -4.19946 19.6904
11978 1 -1.68982 -4.86721 -15.046 -1.68982 -4.86721 18.6112
1625 1 -2.65618 -5.40279 -15.2685 -2.65618 -5.40279 -15.2685
12615 1 -0.107896 -5.09024 -14.8753 -0.107896 28.567 -14.8753
287 1 -1.06453 -4.07512 -14.3031 -1.06453 29.5821 -14.3031
14908 1 -16.1774 -3.16445 -14.1191 17.4799 -3.16445 19.5382
9339 1 -13.6287 -4.52086 -14.2858 20.0286 -4.52086 -14.2858
1894 1 -13.1564 -2.91766 -14.3639 -13.1564 -2.91766 -14.3639
9678 1 -11.7672 -3.76085 -14.9283 21.89 -3.76085 -14.9283
10037 1 -11.1955 -3.61654 -14.0572 -11.1955 -3.61654 -14.0572
3363 1 -9.36147 -4.19466 -14.646 -9.36147 -4.19466 19.0113
696 1 -5.17197 -2.75701 -15.36 -5.17197 -2.75701 -15.36
13563 1 -3.55733 -3.3879 -15.0662 -3.55733 -3.3879 -15.0662
7275 1 -2.12951 -3.59901 -14.4939 -2.12951 30.0582 19.1634
8716 1 -1.16184 -2.91316 -14.8834 -1.16184 -2.91316 -14.8834
7992 1 -0.520521 -6.04846 -16.7971 -0.520521 -6.04846 -16.7971
323 1 -15.1113 -3.06547 -14.8537 -15.1113 -3.06547 -14.8537
4973 1 -13.8479 -2.46541 -15.1549 -13.8479 -2.46541 -15.1549
4349 1 -12.8248 -1.25076 -15.4306 -12.8248 -1.25076 -15.4306
6303 1 -11.9374 -2.69016 -14.895 -11.9374 -2.69016 18.7622
914 1 -10.5857 -2.63272 -14.3412 -10.5857 -2.63272 -14.3412
12912 1 -9.21595 -1.09414 -14.5146 24.4413 -1.09414 19.1426
8616 1 -9.25364 -3.06373 -14.9624 -9.25364 -3.06373 -14.9624
9303 1 -8.3026 -2.47674 -14.5611 25.3547 -2.47674 -14.5611
4345 1 -6.90632 -2.39904 -14.5009 -6.90632 -2.39904 -14.5009
5385 1 -4.18253 -2.41662 -14.9652 -4.18253 -2.41662 -14.9652
86 1 -4.89377 -1.69009 -14.1716 -4.89377 -1.69009 -14.1716
4691 1 -3.34252 -3.03684 -14.0825 -3.34252 -3.03684 -14.0825
14637 1 -3.44261 -1.53392 -14.4375 -3.44261 -1.53392 -14.4375
2142 1 -1.89301 -2.02608 -14.7478 -1.89301 -2.02608 18.9095
4522 1 -2.73216 -3.02479 -15.5419 -2.73216 -3.02479 -15.5419
5834 1 -0.687148 -2.19825 -13.7997 -0.687148 -2.19825 -13.7997
5941 1 -1.43773 -2.1229 -16.0818 -1.43773 -2.1229 -16.0818
7227 1 -8.86792 -4.65123 -16.1777 -8.86792 -4.65123 -16.1777
5094 1 -15.1123 -1.10472 -14.706 -15.1123 -1.10472 -14.706
9266 1 -13.2497 -1.01103 -14.4882 20.4076 -1.01103 -14.4882
13678 1 -10.307 -1.43856 -14.7175 -10.307 -1.43856 -14.7175
5419 1 -11.358 -0.673267 -14.7448 -11.358 -0.673267 -14.7448
1882 1 -7.14918 -0.913337 -15.2088 -7.14918 -0.913337 -15.2088
5740 1 -8.89409 -0.217527 -15.1954 -8.89409 -0.217527 -15.1954
6851 1 -6.04943 -0.602251 -14.2143 -6.04943 -0.602251 19.443
1093 1 -4.85417 -0.991296 -15.4385 -4.85417 -0.991296 -15.4385
5528 1 -4.84421 -0.474042 -14.5627 -4.84421 -0.474042 -14.5627
3747 1 -2.9014 -0.532996 -15.0393 -2.9014 -0.532996 18.6179
8361 1 -1.07861 -0.815842 -15.1476 -1.07861 -34.4731 -15.1476
11163 1 -0.784449 -0.924767 -13.9733 -0.784449 -0.924767 19.684
1810 1 -15.741 -15.5386 -12.833 -15.741 -15.5386 -12.833
9308 1 -14.8043 -16.5281 -13.8999 18.8529 -16.5281 -13.8999
4152 1 -14.8886 -16.1204 -12.4126 -14.8886 17.5368 -12.4126
1290 1 -13.402 -16.2836 -12.9696 -13.402 -16.2836 -12.9696
12083 1 -16.7397 -8.11391 -2.99485 16.9175 -8.11391 -2.99485
3110 1 -9.12217 -15.9841 -13.2357 -9.12217 -15.9841 20.4215
462 1 -8.34055 -16.7755 -12.7048 -8.34055 -16.7755 -12.7048
6369 1 -7.60941 -15.0445 -13.3782 -7.60941 18.6128 20.279
1968 1 -6.31365 -16.4453 -13.3455 -6.31365 -16.4453 -13.3455
6769 1 -5.44683 -16.3664 -14.2537 -5.44683 -16.3664 19.4036
7854 1 -2.88301 -16.4724 -13.4144 -2.88301 17.1849 20.2428
3335 1 -0.766181 -15.9164 -13.6717 -0.766181 -15.9164 -13.6717
8261 1 -1.94311 -15.4248 -13.0291 31.7141 -15.4248 -13.0291
15661 1 -0.142635 -16.3074 -12.5868 33.5146 17.3499 -12.5868
9236 1 -15.6545 -14.5348 -12.6973 18.0027 -14.5348 -12.6973
7964 1 -16.3101 -6.59814 -16.0589 -16.3101 27.0591 17.5983
2429 1 -15.4152 -15.1148 -14.2449 -15.4152 -15.1148 19.4123
1924 1 -12.8417 -14.5158 -13.4561 -12.8417 -14.5158 -13.4561
7746 1 -13.8366 -13.7763 -12.7871 -13.8366 -13.7763 20.8702
13957 1 -11.9237 -14.2769 -12.5905 21.7336 19.3804 -12.5905
14445 1 -11.0881 -15.1797 -13.7924 22.5691 18.4776 19.8648
4124 1 -10.1778 -14.2791 -13.3831 -10.1778 19.3781 -13.3831
4794 1 -10.7277 -13.4612 -12.2525 -10.7277 20.196 -12.2525
14259 1 -10.7243 -14.824 -12.4442 22.9329 18.8332 -12.4442
1743 1 -8.16455 -14.9519 -12.3855 -8.16455 -14.9519 -12.3855
472 1 -6.82178 -14.9058 -14.2702 -6.82178 -14.9058 -14.2702
727 1 -5.28163 -15.0546 -12.7173 -5.28163 -15.0546 -12.7173
5700 1 -3.98285 -15.2598 -13.6219 -3.98285 18.3975 -13.6219
589 1 -4.60896 -13.9585 -12.7656 -4.60896 -13.9585 -12.7656
12351 1 -2.23469 -14.0946 -13.2546 31.4226 19.5627 -13.2546
1798 1 -0.838036 -7.21222 -16.4109 -0.838036 -7.21222 -16.4109
12143 1 -1.04022 -14.5665 -13.7059 -1.04022 -14.5665 19.9514
11146 1 -16.1543 -13.7289 -13.4465 17.503 -13.7289 20.2108
15396 1 -13.9818 -12.6556 -13.8857 19.6754 21.0016 19.7715
8850 1 -12.0751 -12.8182 -13.1931 21.5822 -12.8182 -13.1931
5136 1 -8.49282 -13.9624 -12.6894 -8.49282 19.6949 -12.6894
5217 1 -7.23965 -13.599 -13.3045 -7.23965 20.0582 -13.3045
13962 1 -6.01916 -13.0632 -14.0282 27.6381 -13.0632 -14.0282
5388 1 -5.89322 -13.6417 -12.7529 -5.89322 20.0156 -12.7529
3683 1 -4.96075 -12.7629 -13.0385 -4.96075 -12.7629 20.6188
3482 1 -3.38325 -13.7724 -13.0127 -3.38325 19.8848 20.6446
9890 1 -2.27485 -13.0818 -13.216 -2.27485 -13.0818 -13.216
9859 1 -1.09712 -13.2829 -14.2219 -1.09712 -13.2829 -14.2219
14581 1 -1.0363 -13.1797 -12.8653 -1.0363 20.4775 -12.8653
8734 1 -16.2324 -12.516 -12.8963 17.4249 -12.516 -12.8963
11865 1 -15.8642 -10.7916 -12.29 17.7931 -10.7916 21.3672
10488 1 -15.012 -12.1063 -14.7237 18.6452 21.551 18.9335
14266 1 -14.131 -11.731 -13.2096 19.5262 21.9263 -13.2096
12677 1 -12.8441 -12.0961 -13.0266 20.8131 21.5612 -13.0266
10172 1 -12.3639 -11.5892 -13.8446 21.2933 -11.5892 -13.8446
10492 1 -10.9095 -12.3438 -13.4568 22.7478 -12.3438 20.2005
336 1 -8.81892 -12.6111 -13.2868 -8.81892 -12.6111 -13.2868
5290 1 -7.5677 -12.1738 -13.0489 -7.5677 -12.1738 -13.0489
951 1 -6.14851 -12.2852 -12.889 -6.14851 -12.2852 -12.889
6994 1 -5.28895 -11.5858 -13.2416 -5.28895 -11.5858 20.4156
13517 1 -3.86224 -11.2375 -13.4703 -3.86224 22.4198 -13.4703
6174 1 -2.49931 -11.1494 -14.4474 -2.49931 -11.1494 19.2099
4680 1 -1.57077 -11.6959 -13.3521 -1.57077 21.9614 -13.3521
3063 1 -10.3525 -16.0296 -16.681 -10.3525 -16.0296 16.9763
15631 1 -15.5949 -9.72808 -14.2935 18.0623 23.9292 19.3637
371 1 -16.517 -10.0275 -12.9624 -16.517 -10.0275 -12.9624
849 1 -14.8265 -10.6591 -12.9853 -14.8265 -10.6591 -12.9853
6302 1 -13.4098 -10.9018 -13.4374 -13.4098 22.7555 -13.4374
5986 1 -12.8925 -9.69531 -13.6887 -12.8925 -9.69531 -13.6887
1444 1 -12.1013 -10.5432 -13.0031 -12.1013 -10.5432 -13.0031
767 1 -11.3756 -11.4247 -14.4473 -11.3756 -11.4247 -14.4473
12935 1 -11.2393 -11.0023 -12.7044 22.418 -11.0023 -12.7044
11712 1 -9.20218 -11.1026 -13.4016 24.4551 -11.1026 20.2556
3618 1 -7.1194 -10.7109 -13.5591 -7.1194 -10.7109 20.0982
4581 1 -2.99893 -10.4365 -12.8497 -2.99893 -10.4365 -12.8497
7279 1 -1.85945 -10.3703 -13.8725 -1.85945 -10.3703 -13.8725
3298 1 -1.57539 -10.614 -12.7491 -1.57539 -10.614 20.9081
9183 1 -0.650649 -11.0644 -14.0995 -0.650649 -11.0644 -14.0995
5994 1 -15.7717 -9.20908 -12.9925 -15.7717 24.4482 -12.9925
10043 1 -14.598 -8.90067 -13.6248 19.0593 -8.90067 -13.6248
4852 1 -11.6159 -9.79349 -13.6472 -11.6159 23.8638 -13.6472
5720 1 -10.202 -10.6718 -13.9271 -10.202 22.9854 -13.9271
12587 1 -11.0683 -8.41822 -13.2877 22.589 -8.41822 -13.2877
740 1 -9.95835 -8.97196 -13.7708 -9.95835 -8.97196 -13.7708
3061 1 -8.93291 -9.5562 -12.8182 -8.93291 -9.5562 20.839
1711 1 -8.13745 -7.94479 -12.373 -8.13745 -7.94479 -12.373
1687 1 -6.99014 -9.62322 -13.5443 -6.99014 -9.62322 -13.5443
5155 1 -5.91687 -8.09548 -13.2876 -5.91687 25.5618 -13.2876
1017 1 -5.06039 -8.55973 -12.9946 -5.06039 -8.55973 -12.9946
10528 1 -1.85279 -9.05403 -14.1931 -1.85279 -9.05403 19.4641
7070 1 -3.69903 -8.80711 -12.9069 -3.69903 -8.80711 20.7504
12340 1 -2.6444 -9.18486 -12.829 -2.6444 -9.18486 20.8283
4796 1 -0.911884 -9.63002 -13.5194 -0.911884 -9.63002 -13.5194
6772 1 -16.3936 -7.48604 -14.5444 -16.3936 -7.48604 19.1129
15275 1 -13.6093 -7.73653 -13.2068 20.0479 -7.73653 20.4505
8500 1 -15.5101 -8.16386 -14.0777 18.1472 -8.16386 -14.0777
1910 1 -13.1192 -8.59181 -12.6874 -13.1192 -8.59181 -12.6874
12226 1 -12.4707 -8.07939 -13.6346 -12.4707 -8.07939 20.0226
2736 1 -8.94669 -5.90006 -13.2175 -8.94669 -5.90006 20.4398
10003 1 -10.9892 -7.2626 -13.5052 22.6681 -7.2626 -13.5052
11445 1 -7.11024 -7.63334 -12.8806 26.547 -7.63334 20.7766
13632 1 -5.43618 -7.15804 -13.4657 -5.43618 -7.15804 -13.4657
995 1 -3.05951 -8.48592 -13.607 -3.05951 -8.48592 -13.607
11182 1 -1.99027 -7.91136 -13.5732 -1.99027 -7.91136 20.0841
797 1 -2.66071 -7.5165 -12.2855 -2.66071 -7.5165 -12.2855
16141 1 -15.6942 -9.68896 -16.5162 17.963 -9.68896 17.1411
9927 1 -15.4629 -6.36262 -13.6264 18.1943 -6.36262 -13.6264
12159 1 -13.3946 -6.48733 -12.4775 -13.3946 -6.48733 21.1798
5279 1 -14.1752 -6.07599 -13.3802 -14.1752 -6.07599 -13.3802
8524 1 -12.4251 -6.78527 -13.7767 21.2321 -6.78527 -13.7767
793 1 -11.4332 -6.35926 -13.6737 -11.4332 -6.35926 -13.6737
741 1 -10.0546 -5.50978 -13.6236 -10.0546 -5.50978 -13.6236
12350 1 -6.94841 -5.34008 -13.616 -6.94841 28.3172 -13.616
618 1 -7.93327 -6.1182 -13.0073 25.724 -6.1182 -13.0073
4172 1 -6.87493 -6.48617 -12.2466 -6.87493 27.1711 -12.2466
14616 1 -6.25077 -5.57804 -14.3524 -6.25077 -5.57804 19.3048
1578 1 -4.31004 -6.6144 -14.0337 -4.31004 -6.6144 -14.0337
9126 1 -4.59053 -6.02069 -12.4906 -4.59053 -6.02069 -12.4906
2324 1 -3.4827 -7.00962 -13.0805 -3.4827 -7.00962 20.5768
2117 1 -3.45626 -5.35346 -13.4033 -3.45626 -5.35346 -13.4033
1702 1 -1.36667 -5.88762 -14.0908 -1.36667 -5.88762 -14.0908
15681 1 -0.49979 -7.26003 -13.1406 -0.49979 -7.26003 20.5166
3974 1 -16.4137 -5.17551 -13.3236 -16.4137 -5.17551 20.3336
12580 1 -14.7079 -5.14502 -12.821 -14.7079 -5.14502 -12.821
9529 1 -15.4067 -4.02912 -12.4623 18.2506 -4.02912 -12.4623
7056 1 -13.2264 -5.1189 -12.8333 -13.2264 -5.1189 20.824
3763 1 -11.3401 -4.78702 -14.0113 -11.3401 -4.78702 19.6459
8179 1 -10.6673 -5.34837 -12.5299 -10.6673 -5.34837 21.1274
2264 1 -9.41568 -4.12968 -12.9799 -9.41568 -4.12968 20.6773
22 1 -8.43314 -4.88172 -12.9217 -8.43314 -4.88172 -12.9217
4205 1 -7.6645 -4.04818 -12.7672 -7.6645 29.6091 -12.7672
1408 1 -5.82723 -4.22429 -13.3937 -5.82723 -4.22429 -13.3937
3130 1 -3.96509 -3.8747 -13.1416 -3.96509 -3.8747 20.5156
9950 1 -2.36729 -6.09996 -13.1091 -2.36729 -6.09996 -13.1091
10824 1 -1.45827 -4.7865 -13.2307 -1.45827 -4.7865 20.4265
10014 1 -0.579569 -5.16232 -13.616 -0.579569 -5.16232 -13.616
13423 1 -16.0972 -3.85507 -13.35 17.5601 -3.85507 -13.35
4176 1 -14.7778 -3.61561 -13.4353 -14.7778 -3.61561 -13.4353
8744 1 -12.6527 -3.75102 -13.7131 21.0046 -3.75102 -13.7131
8224 1 -12.1702 -4.95003 -12.6626 21.487 -38.6073 -12.6626
15602 1 -10.6254 -3.79523 -13.0053 23.0318 -3.79523 20.652
11676 1 -8.42348 -3.81562 -13.9066 25.2338 -3.81562 19.7507
1032 1 -7.35299 -2.89867 -13.7054 -7.35299 -2.89867 -13.7054
324 1 -5.97834 -3.14217 -13.8309 -5.97834 -3.14217 -13.8309
1590 1 -4.39254 -4.03376 -14.3874 -4.39254 -4.03376 -14.3874
16068 1 -4.56931 -2.77785 -13.3261 29.0879 -2.77785 -13.3261
6725 1 -3.0124 -2.53524 -12.5653 -3.0124 -2.53524 21.092
9673 1 -1.15053 -3.09747 -13.003 -1.15053 -3.09747 -13.003
5210 1 -0.450908 -3.31264 -12.1538 -0.450908 30.3446 -12.1538
13677 1 -0.28862 -3.19416 -13.7929 -0.28862 30.4631 -13.7929
12427 1 -14.9359 -2.68068 -13.7748 18.7214 -2.68068 -13.7748
4452 1 -13.9361 -2.54163 -13.0766 -13.9361 -2.54163 -13.0766
5178 1 -11.0933 -2.5458 -13.2949 -11.0933 -2.5458 -13.2949
1763 1 -9.68055 -2.42232 -13.4433 -9.68055 -2.42232 -13.4433