ITEM: TIMESTEP
5000
ITEM: NUMBER OF ATOMS
16384
ITEM: BOX BOUNDS pp pp pp
-1.6828627036276380e+01 1.6828627036276380e+01
-1.6828627036276380e+01 1.6828627036276380e+01
-1.6828627036276380e+01 1.6828627036276380e+01
ITEM: ATOMS id type x y z xu yu zu
5975 1 -16.6588 -15.6948 -16.0968 -16.6588 17.9624 -16.0968
61 1 -0.0979701 -4.07338 -5.77384 -0.0979701 -4.07338 -5.77384
13085 1 -16.7641 -0.934983 -7.99543 16.8931 -0.934983 -7.99543
15029 1 -13.0213 -16.1619 -16.2309 -13.0213 -16.1619 17.4264
8046 1 -12.2249 -15.5727 -14.6225 -12.2249 18.0845 19.0348
7879 1 -16.5784 -8.50691 -5.75959 -16.5784 -8.50691 -5.75959
13871 1 -16.8123 -8.4641 -0.0593502 16.845 25.1931 -0.0593502
8500 1 -16.3784 -6.96683 -14.1695 17.2789 -6.96683 -14.1695
9696 1 -8.89824 -0.0630227 -8.49991 24.759 -0.0630227 -8.49991
13395 1 -0.395744 -3.07529 -10.613 -0.395744 -3.07529 -10.613
10651 1 -16.4327 -4.64874 -4.48646 17.2245 -4.64874 -4.48646
8013 1 -16.4302 -12.2103 -2.52957 -16.4302 21.447 -2.52957
12571 1 -1.57842 -16.3021 -15.2503 -1.57842 17.3551 -15.2503
12369 1 -3.15491 -15.6627 -9.1687 -3.15491 17.9946 -9.1687
5937 1 -0.571383 -14.8986 -16.2059 -0.571383 18.7586 -16.2059
11649 1 -16.2468 -14.2824 -16.3037 17.4105 -14.2824 17.3535
469 1 -13.9834 -14.5418 -16.2148 -13.9834 -14.5418 -16.2148
15107 1 -13.4064 -15.1981 -15.143 20.2508 -15.1981 18.5142
10905 1 -14.852 -16.4203 -4.24427 18.8053 -16.4203 -4.24427
3063 1 -12.2757 -14.1338 -14.128 -12.2757 -14.1338 19.5292
15064 1 -11.1922 -13.4528 -13.8885 22.4651 -13.4528 19.7688
4514 1 -8.80997 -14.6172 -15.6764 -8.80997 19.0401 -15.6764
4601 1 -0.102488 -5.92138 -3.27415 -33.7597 -5.92138 -36.9314
5620 1 -5.93494 -0.272378 -1.74656 -5.93494 -0.272378 -1.74656
5100 1 -7.70264 -14.5843 -15.9914 -7.70264 19.0729 -15.9914
10384 1 -16.4889 -16.7397 -4.20527 17.1683 -16.7397 29.452
7538 1 -5.34926 -16.0369 -16.4456 -5.34926 17.6203 17.2117
2471 1 -5.9447 -13.9653 -15.9469 -5.9447 -13.9653 17.7103
12146 1 -4.59867 -13.9974 -16.355 -4.59867 -13.9974 17.3022
6767 1 -9.03003 -16.4071 -2.45129 -9.03003 17.2502 -2.45129
8060 1 -5.40553 -1.0794 -0.820054 -5.40553 -1.0794 -0.820054
11654 1 -5.79564 -0.102414 -0.474069 -5.79564 -0.102414 -0.474069
2765 1 -0.0748607 -0.833474 -0.684377 -0.0748607 -0.833474 -0.684377
6579 1 -13.1186 -13.2712 -16.6785 -13.1186 20.386 16.9788
8100 1 -12.8498 -14.2469 -15.3706 -46.5071 19.4104 18.2867
3112 1 -11.8015 -12.7111 -16.577 -11.8015 -12.7111 17.0803
11190 1 -10.4853 -12.1467 -16.5124 -10.4853 -12.1467 17.1449
773 1 -5.24838 -16.7164 -12.6989 -5.24838 -16.7164 -12.6989
9435 1 -8.51192 -13.1445 -15.3837 25.1453 -13.1445 -15.3837
4665 1 -9.2975 -11.9392 -15.7972 -9.2975 21.7181 -15.7972
3127 1 -7.41084 -14.0482 -14.7934 -7.41084 -14.0482 18.8639
6673 1 -3.09881 -0.525232 -16.3441 -3.09881 -0.525232 17.3131
9383 1 -2.95462 -13.2703 -16.3272 -2.95462 -13.2703 -16.3272
9099 1 -0.958535 -13.5813 -16.4388 -0.958535 -13.5813 -16.4388
4294 1 -5.42609 -0.258903 -9.55932 -5.42609 -0.258903 -9.55932
12768 1 -8.29885 -16.7576 -11.1247 25.3584 16.8997 -11.1247
1978 1 -14.2504 -12.1933 -15.0988 -14.2504 -12.1933 -15.0988
10488 1 -15.1911 -11.8387 -15.9976 18.4661 21.8185 17.6597
9060 1 -16.7826 -1.90563 -14.7093 16.8747 -1.90563 -14.7093
4219 1 -13.1228 -11.7889 -14.8937 -13.1228 21.8684 -14.8937
3519 1 -12.9811 -11.9775 -16.3758 -12.9811 -11.9775 17.2814
5720 1 -11.2324 -12.5049 -15.2519 -11.2324 21.1523 -15.2519
4235 1 -10.6924 -10.9367 -15.1992 -10.6924 22.7205 18.4581
9429 1 -12.1393 -1.5796 -14.7927 21.5179 -35.2369 -14.7927
2426 1 -5.57319 -11.6923 -15.4904 -5.57319 -11.6923 18.1668
8402 1 -5.36973 -12.5746 -15.059 -5.36973 -12.5746 -15.059
1925 1 -4.51201 -13.0159 -15.7688 -4.51201 -13.0159 -15.7688
8255 1 -3.90766 -12.2969 -15.2202 -3.90766 -12.2969 -15.2202
6275 1 -4.44217 -11.1418 -16.1029 -4.44217 -11.1418 -16.1029
12332 1 -15.4402 -16.7664 -10.4228 18.2171 -16.7664 23.2344
6944 1 -1.96738 -10.7628 -15.1577 -1.96738 22.8945 18.4995
985 1 -12.9549 -16.6072 -2.07587 -12.9549 -16.6072 -2.07587
3649 1 -14.3783 -11.7684 -16.7035 -14.3783 -11.7684 16.9537
14365 1 -15.3986 -16.3101 -7.78165 18.2587 17.3471 25.8756
1175 1 -11.3465 -10.0356 -16.2717 -11.3465 -10.0356 -16.2717
2341 1 -11.6628 -11.7102 -16.2475 -11.6628 -11.7102 17.4097
6523 1 -9.20597 -10.2022 -15.6756 -9.20597 23.455 17.9817
11870 1 -12.6727 -16.475 -4.23961 -12.6727 -16.475 -4.23961
6529 1 -7.94609 -10.5321 -15.7611 -7.94609 -10.5321 17.8962
1537 1 -6.80015 -11.2734 -15.3101 -6.80015 -11.2734 -15.3101
8767 1 -13.4802 -16.5102 -12.7372 20.1771 -16.5102 -12.7372
8083 1 -5.3495 -10.3803 -15.4565 -5.3495 -10.3803 18.2008
11149 1 -3.54783 -9.09218 -15.0237 -3.54783 -9.09218 18.6336
6174 1 -2.44771 -11.3761 -16.3995 -2.44771 -11.3761 17.2577
8484 1 -4.8281 -0.661684 -2.40975 -4.8281 -0.661684 -2.40975
4007 1 -16.6111 -7.84619 -15.305 -16.6111 -7.84619 18.3522
16141 1 -16.0007 -9.19923 -16.2798 17.6565 -9.19923 17.3774
53 1 -13.4835 -9.34628 -16.5224 -13.4835 -43.0035 -16.5224
13617 1 -12.6119 -8.39263 -16.4837 -12.6119 25.2646 -16.4837
808 1 -10.8344 -9.32168 -15.5648 -10.8344 -9.32168 -15.5648
503 1 -10.1044 -9.94036 -15.0176 -10.1044 -9.94036 -15.0176
1760 1 -7.0702 -8.80235 -15.2546 -7.0702 -8.80235 -15.2546
4295 1 -5.79677 -9.46314 -15.6141 -5.79677 -9.46314 -15.6141
3889 1 -3.99302 -7.97911 -15.7802 -3.99302 -7.97911 -15.7802
3034 1 -0.0662271 -14.7247 -0.970549 -0.0662271 -14.7247 -0.970549
2265 1 -10.329 -16.7812 -12.1968 -10.329 -16.7812 21.4604
9970 1 -4.80711 -7.64875 -0.480301 -4.80711 -7.64875 -0.480301
6772 1 -15.5269 -6.26798 -15.9632 -15.5269 -6.26798 17.694
12192 1 -14.5692 -8.49129 -16.7698 19.088 -8.49129 16.8875
12522 1 -12.2782 -7.05329 -15.6149 -12.2782 -7.05329 -15.6149
1438 1 -9.61405 -7.80812 -15.8322 -9.61405 -7.80812 -15.8322
1594 1 -4.99121 -16.4332 -2.0297 -4.99121 -16.4332 -2.0297
8709 1 -10.9052 -7.7164 -16.2629 -10.9052 -7.7164 -16.2629
12503 1 -7.86771 -8.08124 -15.4039 25.7895 25.576 -15.4039
4715 1 -7.33484 -6.67272 -16.0164 -7.33484 26.9845 -16.0164
14054 1 -3.89531 -16.8127 -16.2858 -3.89531 16.8446 -16.2858
1368 1 -4.39463 -15.3914 -2.59073 -4.39463 18.2659 -2.59073
3088 1 -8.21707 -16.5999 -6.13955 -8.21707 -16.5999 27.5177
11584 1 -5.19238 -7.86379 -15.3914 -5.19238 -7.86379 18.2659
9002 1 -2.30233 -6.85308 -16.105 -2.30233 -6.85308 -16.105
3832 1 -5.32285 -4.79381 -15.9973 -5.32285 -4.79381 17.6599
10958 1 -8.152 -2.80991 -16.5096 -8.152 -2.80991 17.1477
2623 1 -15.0616 -7.20342 -15.1985 -15.0616 -7.20342 18.4587
6319 1 -14.2911 -6.02777 -15.5731 -14.2911 27.6295 18.0842
14935 1 -12.835 -7.47248 -14.6609 -12.835 -7.47248 18.9963
2010 1 -12.9787 -6.44844 -16.2941 -12.9787 -6.44844 -16.2941
14402 1 -11.0394 -6.64865 -15.6659 22.6179 -6.64865 17.9914
2611 1 -11.4724 -7.77616 -15.0061 -11.4724 -7.77616 18.6512
1639 1 -10.1469 -6.21112 -15.8717 -10.1469 -6.21112 -15.8717
9102 1 -5.77689 -6.89529 -16.482 -5.77689 -6.89529 -16.482
4995 1 -8.83695 -6.75819 -15.4772 -8.83695 -6.75819 -15.4772
12124 1 -0.532298 -0.302889 -3.41882 -0.532298 -0.302889 -3.41882
1481 1 -5.18593 -5.95118 -15.5737 -5.18593 -5.95118 -15.5737
11381 1 -3.96349 -6.76572 -16.4365 29.6938 -6.76572 17.2208
9818 1 -11.3355 -16.6415 -13.4909 22.3218 -16.6415 -13.4909
12289 1 -0.578987 -6.27326 -15.7722 -0.578987 27.384 17.8851
5386 1 -3.41113 -5.37553 -15.5707 -3.41113 28.2817 -15.5707
11346 1 -8.42351 -0.202595 -9.49063 25.2337 -0.202595 -9.49063
1798 1 -1.35878 -5.5582 -14.7521 -1.35878 -5.5582 -14.7521
323 1 -14.9166 -3.74408 -16.0932 -14.9166 -3.74408 -16.0932
14477 1 -0.0321705 -13.3767 -4.38342 -0.0321705 20.2806 29.2738
10961 1 -1.49593 -8.95177 -15.7958 -1.49593 -8.95177 17.8614
1953 1 -16.03 -4.80176 -16.0982 -16.03 -4.80176 -16.0982
3029 1 -13.2829 -5.00853 -15.5197 -13.2829 -5.00853 18.1376
4179 1 -2.86923 -16.7436 -2.07265 -2.86923 16.9136 -2.07265
4724 1 -10.7032 -4.34189 -16.6347 -10.7032 -4.34189 -16.6347
12218 1 -8.1211 -5.24851 -15.8102 -8.1211 -5.24851 17.847
1094 1 -7.06068 -5.78635 -16.5948 -7.06068 -5.78635 -16.5948
5320 1 -6.46159 -4.96533 -15.8011 -6.46159 -4.96533 -15.8011
6214 1 -4.31949 -5.54066 -16.0726 -4.31949 -5.54066 17.5847
1169 1 -2.327 -5.26744 -16.3561 -2.327 -5.26744 -16.3561
11978 1 -2.06685 -4.03058 -15.435 -2.06685 -4.03058 18.2222
11310 1 -0.960136 -4.11007 -15.3914 -0.960136 -37.7673 18.2658
2277 1 -5.63424 -13.2572 -1.56275 -5.63424 -13.2572 -1.56275
10751 1 -14.8218 -1.90005 -15.9166 18.8355 -1.90005 17.7407
3468 1 -14.9712 -3.19267 -14.9638 -14.9712 -3.19267 18.6935
9678 1 -12.8928 -3.48197 -15.7009 20.7644 -3.48197 -15.7009
13690 1 -11.4732 -3.25267 -15.6277 22.1841 -3.25267 -15.6277
1589 1 -8.7002 -4.03239 -15.2469 -8.7002 -4.03239 -15.2469
5248 1 -5.99309 -2.54734 -15.6111 -5.99309 -2.54734 -15.6111
4321 1 -7.64225 -3.6561 -16.0022 -7.64225 -3.6561 -16.0022
499 1 -0.0275209 -10.7208 -13.5147 -0.0275209 -10.7208 -13.5147
1690 1 -5.2878 -3.52379 -15.9329 -5.2878 -3.52379 -15.9329
10574 1 -3.17812 -4.00849 -15.8543 -3.17812 -4.00849 17.803
9305 1 -11.6822 -16.6306 -14.9136 -11.6822 -16.6306 -14.9136
2049 1 -2.50093 -2.87062 -15.791 -2.50093 -2.87062 17.8663
7275 1 -1.09998 -2.92898 -16.4482 -1.09998 30.7283 17.209
4094 1 -16.1557 -2.32363 -16.5105 -16.1557 -2.32363 -16.5105
14127 1 -0.0905721 -3.55739 -7.48052 -0.0905721 -3.55739 -7.48052
5536 1 -0.233436 -0.339016 -13.4636 -0.233436 -0.339016 -13.4636
2303 1 -13.8184 -2.65167 -15.5477 -13.8184 -2.65167 18.1096
3730 1 -4.65189 -0.0255164 -1.30745 -4.65189 -0.0255164 -1.30745
4875 1 -15.7262 -0.263006 -14.7088 -15.7262 -0.263006 -14.7088
10 1 -7.05408 -2.52548 -16.2749 -7.05408 -2.52548 -16.2749
888 1 -6.24577 -16.4534 -3.92912 -6.24577 -16.4534 -3.92912
4345 1 -8.25209 -1.3737 -15.1362 -8.25209 -1.3737 -15.1362
12204 1 -3.71794 -0.281814 -14.9545 -3.71794 -0.281814 -14.9545
4522 1 -3.64724 -2.65235 -15.2716 -3.64724 -2.65235 -15.2716
13191 1 -0.095008 -2.9535 -16.0284 -0.095008 -2.9535 17.6288
7181 1 -15.8497 -0.998648 -15.5162 -15.8497 -0.998648 -15.5162
4973 1 -15.6584 -1.13987 -16.5756 -15.6584 -1.13987 -16.5756
4349 1 -12.746 -1.64548 -15.7051 -12.746 -1.64548 -15.7051
7984 1 -11.2545 -1.63121 -15.8557 -11.2545 32.026 17.8016
6485 1 -9.85689 -0.20654 -15.6351 -9.85689 33.4507 18.0222
12420 1 -8.68625 -0.298477 -16.2608 24.971 -0.298477 -16.2608
7703 1 -7.66378 -0.541244 -15.7211 -7.66378 -0.541244 17.9361
15196 1 -16.2641 -16.2644 -15.0166 17.3931 17.3929 18.6406
5383 1 -5.63852 -0.209434 -16.1778 -5.63852 -0.209434 -16.1778
1608 1 -5.94359 -14.4684 -0.239342 -5.94359 -14.4684 -0.239342
5528 1 -4.26521 -1.15371 -16.2433 -4.26521 -1.15371 -16.2433
5941 1 -1.75853 -1.04884 -15.7425 -1.75853 -1.04884 -15.7425
3802 1 -1.22984 -1.81942 -16.6158 -1.22984 -1.81942 17.0415
1119 1 -0.00376839 -0.689061 -15.9989 -0.00376839 -0.689061 -15.9989
46 1 -0.934599 -0.928042 -14.6373 -0.934599 -0.928042 -14.6373
6965 1 -16.4169 -15.7231 -13.994 -16.4169 17.9341 19.6632
3622 1 -3.43447 -15.9731 -0.380534 -3.43447 -15.9731 -0.380534
2851 1 -13.6543 -15.9367 -14.1219 -13.6543 -15.9367 19.5354
5496 1 -0.0549768 -2.56427 -5.66995 -0.0549768 -2.56427 -5.66995
179 1 -14.0183 -10.3913 -16.799 -14.0183 -10.3913 -16.799
7456 1 -10.3616 -15.0484 -15.6863 -10.3616 18.6088 -15.6863
74 1 -10.2433 -16.1496 -14.8607 -10.2433 -16.1496 -14.8607
472 1 -8.26707 -15.9802 -15.4034 -8.26707 -15.9802 -15.4034
8868 1 -6.5943 -15.3944 -15.8287 -6.5943 -15.3944 -15.8287
1968 1 -6.71604 -16.2943 -13.7611 -6.71604 -16.2943 -13.7611
11648 1 -5.5339 -16.3656 -15.012 -5.5339 -16.3656 18.6452
6376 1 -4.29779 -16.5944 -14.7618 -4.29779 17.0629 18.8954
15663 1 -3.82708 -16.1139 -13.8989 29.8302 17.5434 19.7584
9096 1 -1.84602 -15.3423 -14.3223 -1.84602 -15.3423 -14.3223
2354 1 -0.701369 -16.1206 -14.4709 -0.701369 -16.1206 19.1864
2372 1 -15.5086 -15.1049 -15.3343 -15.5086 -15.1049 18.3229
14882 1 -11.2388 -14.3174 -14.7461 22.4184 19.3398 18.9111
4054 1 -9.26259 -14.2036 -14.3384 -9.26259 -14.2036 19.3188
523 1 -7.53045 -13.6538 -13.4664 -7.53045 -13.6538 -13.4664
16382 1 -5.46512 -14.9857 -15.3603 -5.46512 18.6715 -15.3603
5159 1 -3.48159 -13.7779 -13.9775 -3.48159 19.8794 -13.9775
8669 1 -3.29193 -15.4047 -14.7427 -3.29193 -15.4047 -14.7427
8719 1 -2.08165 -13.3957 -15.7383 -2.08165 -13.3957 -15.7383
2126 1 -2.66477 -15.068 -15.5503 -2.66477 -15.068 18.1069
12351 1 -1.68442 -14.1158 -13.4972 31.9728 19.5415 -13.4972
1176 1 -16.1981 -14.4435 -14.501 -16.1981 -14.4435 -14.501
9415 1 -16.1305 -13.7198 -15.2217 17.5267 -13.7198 -15.2217
5296 1 -15.3676 -12.9684 -15.854 -15.3676 20.6889 -15.854
1924 1 -14.4037 -14.5438 -14.5385 -14.4037 -14.5438 -14.5385
3581 1 -13.5546 -13.4668 -15.3698 -13.5546 -13.4668 18.2874
8786 1 -12.1815 -12.5249 -13.8323 21.4757 -12.5249 -13.8323
2488 1 -9.85158 -13.4558 -15.507 -9.85158 -13.4558 18.1502
7848 1 -8.02442 -13.3005 -14.2991 -8.02442 20.3568 19.3582
4147 1 -6.80228 -12.5867 -14.2598 -6.80228 21.0706 -14.2598
13962 1 -5.98309 -13.8543 -14.5951 27.6742 -13.8543 -14.5951
8173 1 -4.14921 -13.2396 -14.6207 -4.14921 20.4176 19.0365
357 1 -3.86903 -14.1843 -15.4152 -3.86903 -14.1843 -15.4152
8860 1 -4.71292 -12.593 -12.8189 -4.71292 -12.593 -12.8189
9433 1 -2.83618 -13.1895 -14.7141 -2.83618 -13.1895 -14.7141
9859 1 -2.35453 -12.2663 -15.5183 -2.35453 -12.2663 -15.5183
8540 1 -1.753 -14.0336 -14.9261 -1.753 -14.0336 -14.9261
9630 1 -0.754977 -14.1245 -14.2129 -0.754977 -14.1245 -14.2129
11606 1 -15.1442 -11.6607 -14.289 18.5131 -11.6607 -14.289
12827 1 -13.9971 -12.8056 -14.1566 -13.9971 20.8517 -14.1566
767 1 -12.4198 -13.1919 -15.1745 -12.4198 -13.1919 -15.1745
1251 1 -10.1576 -12.8246 -14.2359 -10.1576 20.8326 -14.2359
1331 1 -12.0643 -11.4787 -14.2956 -12.0643 -11.4787 -14.2956
13813 1 -9.00515 -12.2591 -14.2953 24.6521 21.3982 -14.2953
3722 1 -8.14532 -12.1504 -15.2736 -8.14532 -12.1504 18.3836
8036 1 -6.85796 -11.1544 -13.7915 -6.85796 22.5028 19.8658
12016 1 -4.22934 -10.1421 -14.803 -4.22934 -10.1421 18.8542
7644 1 -4.29674 -11.3498 -15.0897 -4.29674 22.3074 18.5675
4680 1 -2.08291 -12.83 -13.9783 -2.08291 20.8273 -13.9783
9896 1 -1.02758 -12.4487 -15.391 -1.02758 -12.4487 -15.391
1375 1 -16.6323 -10.831 -14.8572 -16.6323 -10.831 -14.8572
12696 1 -16.1505 -10.3923 -15.8369 17.5068 23.2649 -15.8369
13271 1 -14.4037 -9.82951 -14.15 19.2536 23.8277 -14.15
8215 1 -12.446 -9.92492 -15.9723 -12.446 23.7323 17.6849
14478 1 -11.9366 -10.8206 -15.2471 21.7207 22.8366 -15.2471
733 1 -8.56841 -10.5619 -13.632 -8.56841 -10.5619 -13.632
7530 1 -8.26302 -10.0581 -14.8573 -8.26302 -10.0581 18.7999
10984 1 -7.42338 -10.4283 -12.9458 26.2339 -10.4283 20.7115
7037 1 -2.40066 -9.8588 -15.6194 -2.40066 23.7985 18.0379
3298 1 -1.42207 -10.1721 -16.0441 -1.42207 -10.1721 17.6131
7279 1 -0.731066 -9.13998 -13.6427 -0.731066 -9.13998 -13.6427
8831 1 -16.309 -9.11174 -15.0255 17.3482 -9.11174 -15.0255
12056 1 -15.6253 -9.55742 -13.9965 -15.6253 -9.55742 19.6608
10043 1 -13.7283 -10.1027 -13.1327 19.9289 -10.1027 -13.1327
5025 1 -15.1814 -8.57008 -15.5876 -15.1814 -8.57008 -15.5876
5986 1 -12.2228 -8.72601 -15.2148 -12.2228 -8.72601 -15.2148
1536 1 -11.3002 -9.64177 -14.2527 -11.3002 -9.64177 -14.2527
2261 1 -9.28285 -9.08693 -14.8242 -9.28285 -9.08693 18.833
9124 1 -8.31713 -9.10223 -14.5016 -8.31713 -9.10223 -14.5016
1305 1 -6.7738 -10.1309 -14.8011 -6.7738 -10.1309 -14.8011
751 1 -6.10614 -8.61762 -14.5414 -6.10614 -8.61762 -14.5414
4807 1 -4.90152 -9.16834 -14.2692 -4.90152 24.4889 -14.2692
13517 1 -2.84326 -9.21112 -14.0383 -2.84326 24.4461 -14.0383
8415 1 -2.48456 -8.64016 -15.4468 -2.48456 -8.64016 -15.4468
995 1 -0.799172 -10.5885 -14.7979 -0.799172 -10.5885 -14.7979
335 1 -15.9064 -8.02305 -14.1869 -15.9064 -8.02305 -14.1869
6982 1 -13.8746 -8.902 -14.3049 -13.8746 -8.902 19.3523
13798 1 -12.498 -8.30712 -13.8049 21.1592 25.3501 -13.8049
12045 1 -13.3827 -8.92526 -15.4356 20.2745 -8.92526 18.2217
480 1 -10.3397 -8.31063 -15.2426 -10.3397 -8.31063 -15.2426
11538 1 -8.73992 -7.57788 -14.1424 24.9173 -7.57788 19.5148
1843 1 -7.37796 -7.52794 -14.5137 -7.37796 -7.52794 -14.5137
12283 1 -7.27984 -9.0465 -13.7944 -7.27984 -9.0465 19.8629
7366 1 -6.47258 -7.39444 -15.3884 -6.47258 -7.39444 18.2688
3004 1 -3.09283 -7.57368 -15.4125 -3.09283 -7.57368 18.2448
7070 1 -1.78514 -8.611 -14.4604 -1.78514 -8.611 19.1968
5261 1 -0.588072 -8.24683 -14.9591 -0.588072 -8.24683 -14.9591
2324 1 -2.3278 -7.11913 -14.1582 -2.3278 -7.11913 19.4991
13260 1 -16.5174 -5.47297 -14.8475 17.1399 28.1843 -14.8475
11112 1 -14.7473 -6.20975 -14.2441 18.91 -6.20975 19.4131
6334 1 -12.2935 -5.96043 -14.6757 -12.2935 -5.96043 18.9816
8524 1 -11.4641 -5.25926 -13.8483 22.1932 -5.25926 -13.8483
3405 1 -10.5445 -6.42901 -14.4078 -10.5445 -6.42901 19.2494
2873 1 -8.89445 -5.80977 -14.8793 -8.89445 -5.80977 18.778
205 1 -8.49501 -4.75083 -14.3406 -8.49501 -4.75083 -14.3406
12350 1 -7.09096 -5.30182 -14.245 -7.09096 28.3554 -14.245
2185 1 -4.775 -6.83276 -14.4652 -4.775 -6.83276 19.1921
8505 1 -3.96603 -6.44773 -14.9586 -3.96603 -6.44773 -14.9586
13080 1 -0.330419 -7.00265 -15.0695 -0.330419 26.6546 -15.0695
2250 1 -1.70662 -7.55983 -15.0423 -1.70662 -7.55983 18.6149
4711 1 -15.8963 -3.97012 -14.7112 -15.8963 29.6871 -14.7112
10069 1 -14.3488 -5.37786 -14.6318 19.3084 -5.37786 -14.6318
5522 1 -13.4016 -5.1075 -12.9095 -13.4016 -5.1075 -12.9095
3070 1 -11.949 -5.19534 -15.225 -11.949 -5.19534 18.4323
8616 1 -11.0723 -5.32957 -15.8997 -11.0723 -5.32957 -15.8997
11507 1 -9.76084 -5.20494 -16.0767 23.8964 -5.20494 17.5806
1975 1 -9.35085 -5.44156 -13.449 -9.35085 -5.44156 -13.449
8056 1 -7.56342 -5.77315 -14.9914 -7.56342 -5.77315 18.6658
4205 1 -6.03261 -3.15167 -14.5042 -6.03261 30.5056 -14.5042
14616 1 -6.38881 -6.33235 -14.9248 -6.38881 -6.33235 18.7325
2117 1 -4.50448 -4.52149 -15.4244 -4.50448 -4.52149 -15.4244
3130 1 -4.55052 -5.46172 -14.199 -4.55052 -5.46172 19.4582
15509 1 -2.83267 -5.04454 -14.5973 -2.83267 -5.04454 19.0599
1625 1 -2.31424 -6.11622 -15.205 -2.31424 -6.11622 -15.205
1702 1 -1.58291 -3.93768 -14.1535 -1.58291 -3.93768 -14.1535
10168 1 -8.93594 -4.74797 -16.5331 24.7213 -4.74797 17.1242
1894 1 -13.7212 -2.92082 -14.2259 -13.7212 -2.92082 -14.2259
15950 1 -15.1011 -5.14181 -15.4018 18.5562 -5.14181 18.2554
4789 1 -12.1908 -3.8671 -14.6511 -12.1908 -3.8671 -14.6511
9339 1 -13.4919 -4.95829 -14.225 20.1654 -4.95829 -14.225
914 1 -11.1358 -4.52296 -14.7537 -11.1358 -4.52296 -14.7537
11676 1 -9.71895 -1.99066 -14.7002 23.9383 -1.99066 18.957
4597 1 -8.80296 -2.71658 -14.7679 -8.80296 -2.71658 -14.7679
3263 1 -5.54042 -2.45798 -13.6502 -5.54042 -2.45798 20.007
621 1 -5.74144 -5.33945 -14.6069 -5.74144 -5.33945 -14.6069
13563 1 -1.69834 -3.0931 -14.7905 -1.69834 -3.0931 -14.7905
12615 1 -0.242238 -4.63791 -13.9508 -0.242238 29.0193 -13.9508
5094 1 -15.8138 -2.40878 -15.0422 -15.8138 -2.40878 -15.0422
9133 1 -13.0057 -2.34167 -14.7219 20.6516 -2.34167 -14.7219
4845 1 -0.107352 -9.15635 -10.0502 -0.107352 -9.15635 -10.0502
15923 1 -9.82074 -4.17896 -14.6424 23.8365 -4.17896 19.0148
5740 1 -10.3792 -3.50594 -15.6419 -10.3792 -3.50594 -15.6419
9756 1 -9.22647 -2.4513 -15.6987 24.4308 -36.1086 -15.6987
696 1 -6.47174 -1.58515 -15.0004 -6.47174 -1.58515 -15.0004
6646 1 -4.89723 -2.38733 -16.3061 -4.89723 -2.38733 17.3512
16068 1 -4.6824 -3.938 -14.1598 28.9748 -3.938 -14.1598
4691 1 -3.03994 -3.55625 -14.3395 -3.03994 -3.55625 -14.3395
573 1 -2.7585 -1.69325 -14.8747 -2.7585 -1.69325 -14.8747
8716 1 -0.571268 -2.02881 -15.1835 -0.571268 -2.02881 -15.1835
8128 1 -13.9817 -0.899573 -16.4595 -13.9817 -0.899573 17.1977
3878 1 -12.3893 -16.5926 -0.0748255 -12.3893 -16.5926 -0.0748255
4082 1 -14.4496 -0.947568 -15.326 -14.4496 -0.947568 -15.326
12386 1 -14.5592 -2.31001 -14.6724 19.0981 -2.31001 -14.6724
1023 1 -13.413 -1.3384 -14.7158 -13.413 -1.3384 -14.7158
7877 1 -13.7683 -1.15931 -13.6455 -13.7683 -1.15931 20.0118
13678 1 -10.6741 -1.8993 -14.9391 -10.6741 -1.8993 -14.9391
5666 1 -10.3982 -1.00802 -14.0479 -10.3982 -1.00802 -14.0479
8824 1 -9.16761 -0.640888 -14.1653 -9.16761 -0.640888 -14.1653
12912 1 -9.3067 -0.0457057 -13.0988 24.3506 -0.0457057 20.5584
6430 1 -6.39381 -0.497509 -14.4705 -6.39381 -0.497509 19.1867
6851 1 -5.39535 -1.20685 -15.4004 -5.39535 -1.20685 18.2569
9310 1 -15.9458 -7.32094 -0.413602 17.7114 -7.32094 -0.413602
14637 1 -4.21565 -1.20256 -14.8923 -4.21565 -1.20256 -14.8923
871 1 -0.95925 -15.1266 -1.93751 -0.95925 -15.1266 -1.93751
7424 1 -2.4023 -0.381958 -14.8226 -2.4023 33.2753 18.8347
15709 1 -0.382663 -9.43889 -14.6859 -0.382663 24.2184 -14.6859
2429 1 -15.7024 -16.4854 -13.3461 -15.7024 -16.4854 20.3111
9535 1 -14.6899 -16.1449 -12.9758 18.9673 -16.1449 -12.9758
9308 1 -15.5664 -15.5423 -12.6652 18.0909 -15.5423 -12.6652
15758 1 -12.2158 -16.0558 -13.0932 21.4414 17.6014 -13.0932
13845 1 -11.7041 -15.6252 -11.7001 21.9531 18.0321 -11.7001
1078 1 -7.90995 -4.41157 -0.311767 -7.90995 -4.41157 -0.311767
1171 1 -10.2933 -15.628 -13.9294 -43.9506 -15.628 -13.9294
462 1 -9.02731 -16.8059 -14.3446 -9.02731 -16.8059 -14.3446
3110 1 -9.36779 -15.533 -12.9849 -9.36779 -15.533 20.6723
934 1 -7.30395 -15.4195 -14.2615 -7.30395 -15.4195 -14.2615
11164 1 -14.6745 -0.668964 -6.80772 -14.6745 -0.668964 -6.80772
14239 1 -1.249 -15.7056 -13.1925 -1.249 17.9516 -13.1925
13955 1 -16.4773 -14.4447 -13.067 17.18 19.2125 -13.067
761 1 -13.6312 -14.742 -13.2623 -13.6312 -14.742 -13.2623
11146 1 -15.1003 -15.44 -13.8265 18.5569 -15.44 19.8307
10007 1 -15.2708 -14.1587 -13.2311 18.3865 -14.1587 -13.2311
1290 1 -11.6927 -14.7517 -13.3113 -11.6927 -14.7517 -13.3113
14187 1 -10.5339 -14.4011 -12.2919 23.1234 19.2562 -12.2919
11325 1 -10.9154 -15.5469 -12.7455 22.7419 -15.5469 20.9118
6369 1 -9.03748 -15.5992 -14.5722 -9.03748 18.058 19.085
336 1 -8.47188 -14.4654 -13.4213 -8.47188 -14.4654 -13.4213
5916 1 -5.51233 -15.4789 -14.2053 -5.51233 18.1784 -14.2053
5217 1 -5.10501 -13.6019 -13.3767 -5.10501 20.0553 -13.3767
589 1 -6.0007 -14.6374 -12.1997 -6.0007 -14.6374 -12.1997
10691 1 -4.52736 -14.3615 -12.9287 29.1299 -14.3615 20.7285
5700 1 -4.51949 -15.1201 -13.7014 -4.51949 18.5371 -13.7014
1814 1 -3.04729 -14.7041 -13.003 -3.04729 -14.7041 -13.003
3335 1 -0.299927 -15.4256 -13.8692 -0.299927 -15.4256 -13.8692
15681 1 -0.225229 -6.78077 -10.6277 -0.225229 -6.78077 23.0295
2399 1 -16.1347 -13.0956 -13.1369 -16.1347 -13.0956 20.5203
15396 1 -15.4476 -13.1403 -14.2062 18.2097 20.5169 19.451
7900 1 -12.9993 -13.4539 -13.341 -12.9993 20.2034 20.3163
1740 1 -14.063 -12.786 -13.156 19.5943 -12.786 -13.156
13957 1 -10.8409 -12.7833 -12.8529 22.8164 20.8739 -12.8529
8850 1 -9.89575 -13.4935 -13.1436 23.7615 -13.4935 -13.1436
9845 1 -10.4766 -14.5853 -13.6689 23.1806 -14.5853 -13.6689
951 1 -6.24531 -12.1847 -13.4336 -6.24531 -12.1847 -13.4336
4720 1 -2.56555 -13.0933 -12.9765 -2.56555 20.5639 -12.9765
15834 1 -0.2619 -13.2148 -13.3409 -0.2619 -13.2148 20.3163
16305 1 -11.7711 -6.49657 -16.7886 -11.7711 -6.49657 16.8686
16054 1 -9.75798 -0.817651 -16.6158 23.8993 -0.817651 17.0414
6879 1 -15.0579 -12.7613 -13.2449 -15.0579 20.896 20.4124
11856 1 -14.8093 -10.9731 -15.1519 18.8479 -10.9731 18.5054
10172 1 -13.1663 -12.137 -13.4008 20.491 -12.137 -13.4008
10492 1 -12.4843 -11.3768 -12.9387 21.173 -11.3768 20.7185
5923 1 -10.8465 -11.4251 -13.5167 -10.8465 -11.4251 -13.5167
1435 1 -9.61332 -11.3732 -13.2763 -9.61332 -11.3732 -13.2763
6711 1 -8.09912 -12.6642 -12.284 -8.09912 20.9931 21.3733
1461 1 -8.22906 -12.0319 -13.5783 -8.22906 -12.0319 -13.5783
5290 1 -5.43119 -11.0173 -14.0409 -5.43119 -11.0173 -14.0409
10676 1 -7.25564 -12.6075 -13.258 -7.25564 -12.6075 -13.258
3551 1 -4.84984 -12.2221 -14.0925 -4.84984 -12.2221 -14.0925
5990 1 -3.95708 -11.4834 -13.5655 -3.95708 -11.4834 -13.5655
9890 1 -3.07467 -11.6222 -14.9292 -3.07467 -11.6222 -14.9292
12009 1 -2.24681 -11.5642 -13.5213 -2.24681 -11.5642 20.1359
9183 1 -1.08909 -11.9039 -14.2383 -1.08909 -11.9039 -14.2383
10111 1 -1.27572 -12.2609 -12.7749 -1.27572 -12.2609 -12.7749
2548 1 -15.5347 -10.7077 -13.722 -15.5347 -10.7077 19.9353
849 1 -14.2864 -11.58 -13.4806 -14.2864 -11.58 -13.4806
6302 1 -13.5469 -10.9402 -14.0468 -13.5469 22.717 -14.0468
4852 1 -11.4784 -10.2483 -12.8989 -11.4784 23.409 -12.8989
1802 1 -10.0296 -10.3745 -14.0485 -10.0296 -10.3745 -14.0485
11712 1 -7.56949 -11.1445 -14.5686 26.0878 -11.1445 19.0887
6380 1 -6.03475 -11.1354 -12.5439 -6.03475 -11.1354 -12.5439
3074 1 -6.08223 -9.68282 -14.1802 -6.08223 -9.68282 19.477
6994 1 -4.49029 -10.5007 -13.3699 -4.49029 -10.5007 20.2873
7430 1 -2.9757 -10.7323 -14.4789 -2.9757 -10.7323 19.1784
4796 1 -1.78839 -10.5169 -14.1543 -1.78839 -10.5169 -14.1543
7931 1 -16.2168 -9.93763 -12.6714 -16.2168 23.7196 20.9858
8697 1 -14.7154 -10.1207 -12.252 18.9419 -10.1207 -12.252
3528 1 -13.1801 -8.94612 -13.4563 -13.1801 -8.94612 -13.4563
12587 1 -12.7267 -10.2156 -12.9622 20.9306 -10.2156 -12.9622
740 1 -12.0751 -9.48126 -13.4878 -12.0751 -9.48126 -13.4878
5423 1 -10.8951 -8.39261 -13.9629 -10.8951 -8.39261 -13.9629
3061 1 -9.27792 -8.87622 -13.8427 -9.27792 -8.87622 19.8146
2147 1 -8.6902 -9.86392 -12.7884 -8.6902 -9.86392 20.8688
1687 1 -7.85062 -9.65037 -12.2595 -7.85062 -9.65037 -12.2595
389 1 -6.54292 -9.91108 -12.5813 -6.54292 -9.91108 -12.5813
3618 1 -5.51833 -10.107 -12.2764 -5.51833 -10.107 21.3809
8172 1 -3.49251 -8.39496 -13.0134 -3.49251 -8.39496 -13.0134
4581 1 -2.5238 -9.09147 -12.8789 -2.5238 -9.09147 -12.8789
2361 1 -14.79 -8.94817 -13.4962 -14.79 -8.94817 20.161
1524 1 -3.85638 -10.0831 -16.0246 -3.85638 -10.0831 -16.0246
11708 1 -14.579 -8.73297 -12.1179 -14.579 -8.73297 21.5394
12226 1 -13.2576 -7.74301 -12.9609 -13.2576 -7.74301 20.6964
192 1 -12.0883 -8.12766 -12.8218 -12.0883 -8.12766 -12.8218
12169 1 -10.2332 -7.25213 -13.3993 -10.2332 -7.25213 -13.3993
5155 1 -7.18357 -7.49767 -13.113 -7.18357 26.1596 -13.113
1895 1 -4.19912 -7.91521 -14.2803 -4.19912 -7.91521 -14.2803
4566 1 -3.35369 -6.28739 -13.2173 -3.35369 27.3699 -13.2173
797 1 -1.3841 -8.34472 -13.1373 -1.3841 -8.34472 -13.1373
12340 1 -0.401322 -7.55821 -13.9979 -0.401322 -7.55821 19.6593
12580 1 -16.4402 -7.2123 -13.0609 -16.4402 -7.2123 -13.0609
8057 1 -15.0838 -7.70539 -12.8119 -15.0838 -7.70539 -12.8119
15275 1 -14.1637 -7.35101 -14.4608 19.4936 -7.35101 19.1965
12159 1 -12.8873 -5.99232 -13.6575 -12.8873 -5.99232 19.9998
2398 1 -11.7041 -7.16917 -13.9241 -11.7041 -7.16917 19.7332
10003 1 -11.149 -7.05776 -12.2995 22.5083 -7.05776 -12.2995
741 1 -9.16788 -6.55556 -13.7453 -9.16788 -6.55556 -13.7453
11445 1 -7.3176 -6.80293 -12.3471 26.3397 -6.80293 21.3101
10259 1 -5.5121 -7.69619 -13.7334 -5.5121 -7.69619 -13.7334
1590 1 -5.85535 -5.98417 -13.7579 -5.85535 -5.98417 -13.7579
5563 1 -4.45015 -4.90268 -12.9741 -4.45015 -4.90268 -12.9741
10824 1 -2.08196 -5.10247 -13.4522 -2.08196 -5.10247 20.205
13477 1 -1.53055 -6.55302 -13.5513 -1.53055 27.1042 -13.5513
11182 1 -0.816561 -7.78722 -11.935 -0.816561 -7.78722 21.7223
5279 1 -14.4474 -4.91839 -12.8981 -14.4474 -4.91839 -12.8981
4176 1 -15.6084 -5.5726 -13.7849 -15.6084 -5.5726 -13.7849
8224 1 -13.8949 -5.21305 -11.6328 19.7623 -38.8703 -11.6328
10037 1 -12.6811 -4.44049 -13.7038 -12.6811 -4.44049 -13.7038
3363 1 -11.1637 -5.57736 -12.8108 -11.1637 -5.57736 20.8465
2264 1 -8.93978 -4.11633 -12.9099 -8.93978 -4.11633 20.7473
1866 1 -7.65596 -3.99957 -14.8165 -7.65596 -3.99957 -14.8165
2736 1 -7.99629 -6.38997 -14.1938 -7.99629 -6.38997 19.4635
570 1 -7.10982 -4.44662 -13.435 -7.10982 -4.44662 -13.435
13950 1 -7.13346 -5.81374 -12.8234 -7.13346 -5.81374 -12.8234
13501 1 -4.36988 -3.14593 -12.8961 -4.36988 -3.14593 -12.8961
8131 1 -1.0222 -4.89908 -13.1861 -1.0222 -4.89908 -13.1861
13161 1 -0.362801 -6.25404 -13.0696 -0.362801 -6.25404 -13.0696
12190 1 -8.61883 -6.08826 -16.4045 -8.61883 -6.08826 17.2527
7992 1 -0.60927 -5.74262 -16.6624 -0.60927 -5.74262 -16.6624
4346 1 -14.9114 -4.32764 -13.9606 -14.9114 -4.32764 -13.9606
7670 1 -14.3243 -3.27887 -12.6396 -14.3243 -3.27887 21.0177
14615 1 -13.0124 -3.68678 -12.115 20.6448 -3.68678 21.5423
8744 1 -11.5092 -4.10059 -13.6407 22.148 -4.10059 -13.6407
1520 1 -11.6317 -4.08574 -12.4404 -11.6317 -4.08574 -12.4404
6 1 -10.1719 -3.53161 -13.521 -10.1719 -3.53161 -13.521
22 1 -8.24375 -3.37664 -14.0801 -8.24375 -3.37664 -14.0801
1648 1 -7.4423 -2.8915 -13.4646 -7.4423 -2.8915 -13.4646
1408 1 -6.03531 -4.25107 -13.7842 -6.03531 -4.25107 -13.7842
3508 1 -4.07985 -1.99165 -12.8931 -4.07985 -1.99165 20.7642
11792 1 -3.24132 -2.10348 -13.8093 -3.24132 -2.10348 19.8479
9673 1 -3.35338 -4.36974 -13.4181 -3.35338 -4.36974 -13.4181
9111 1 -2.73882 -2.97774 -13.1052 -2.73882 -2.97774 -13.1052
287 1 -0.62489 -3.6586 -12.9837 -0.62489 29.9987 -12.9837
12427 1 -15.0658 -3.1811 -13.687 18.5915 -3.1811 -13.687
4452 1 -13.5782 -2.38226 -13.3802 -13.5782 -2.38226 -13.3802
392 1 -12.7281 -3.44097 -13.2995 -12.7281 -3.44097 -13.2995
6981 1 -12.83 -1.24255 -12.7872 -12.83 -1.24255 20.8701
5178 1 -11.3397 -2.97709 -14.1747 -11.3397 -2.97709 -14.1747
1763 1 -10.4894 -2.07948 -13.7291 -10.4894 -2.07948 -13.7291
9303 1 -8.62962 -1.70845 -14.0205 25.0276 -1.70845 -14.0205
1032 1 -9.22114 -3.04321 -13.0844 -9.22114 -3.04321 -13.0844
4025 1 -9.75197 -2.1543 -12.9909 -9.75197 -2.1543 20.6664
2505 1 -7.0799 -2.79935 -14.5819 -7.0799 -2.79935 19.0753
11563 1 -7.81915 -2.03184 -13.0822 -7.81915 -2.03184 20.575
1882 1 -6.35654 -1.62316 -13.8392 -6.35654 -1.62316 -13.8392
331 1 -6.15257 -1.65311 -12.6333 -6.15257 -1.65311 -12.6333
324 1 -4.46792 -2.11688 -14.2153 -4.46792 -2.11688 -14.2153
2589 1 -3.73408 -0.774237 -12.7193 -3.73408 -0.774237 20.938
7075 1 -1.9718 -1.11951 -13.7974 -1.9718 -1.11951 19.8599
5080 1 -15.0366 -16.4818 -6.66969 -15.0366 17.1755 -6.66969
6784 1 -0.850945 -2.6337 -13.6395 -0.850945 -2.6337 20.0178
13956 1 -15.8083 -2.12666 -13.1476 17.8489 -2.12666 -13.1476
10798 1 -15.1364 -0.923527 -13.693 18.5209 -0.923527 19.9642
8062 1 -14.713 -1.76869 -13.3287 -14.713 -1.76869 20.3286
9266 1 -11.8941 -1.50748 -13.3777 21.7632 -1.50748 -13.3777
7763 1 -11.5382 -2.56711 -12.5714 -11.5382 -2.56711 21.0858
2023 1 -11.0162 -0.226643 -11.4468 -11.0162 -0.226643 -11.4468
1335 1 -7.39814 -0.813517 -13.7617 -7.39814 -0.813517 -13.7617