ITEM: TIMESTEP
1500
ITEM: NUMBER OF ATOMS
16384
ITEM: BOX BOUNDS pp pp pp
-1.6828627036276380e+01 1.6828627036276380e+01
-1.6828627036276380e+01 1.6828627036276380e+01
-1.6828627036276380e+01 1.6828627036276380e+01
ITEM: ATOMS id type x y z xu yu zu
4219 1 -12.7264 -10.5622 -16.539 -12.7264 23.0951 -16.539
671 1 -14.8769 -16.0039 -15.3557 -14.8769 -16.0039 -15.3557
8460 1 -16.5152 -9.57201 -5.51086 17.1421 -9.57201 -5.51086
469 1 -14.3239 -15.2687 -16.7979 -14.3239 -15.2687 -16.7979
228 1 -0.219161 -4.64397 -9.24066 -0.219161 -4.64397 -9.24066
2514 1 -0.119569 -14.8637 -3.0735 -0.119569 -14.8637 -3.0735
7130 1 -8.97688 -15.5535 -16.2392 -8.97688 18.1038 17.4181
7332 1 -6.99899 -16.5101 -16.141 -6.99899 17.1472 17.5163
13937 1 -0.265011 -16.6617 -6.49276 -0.265011 16.9956 -6.49276
11648 1 -5.92379 -16.0624 -16.2581 -5.92379 -16.0624 17.3991
6376 1 -4.64961 -16.4075 -16.0409 -4.64961 17.2497 17.6164
5159 1 -3.47807 -16.2958 -15.5357 -3.47807 17.3615 -15.5357
12468 1 -1.54793 -16.4636 -3.04954 -1.54793 17.1937 -3.04954
5300 1 -2.16238 -15.0469 -16.0863 -2.16238 18.6104 -16.0863
146 1 -16.3773 -14.2205 -16.359 -16.3773 -14.2205 -16.359
6038 1 -15.9122 -15.4032 -15.7971 -15.9122 18.2541 17.8601
11966 1 -15.2198 -14.2032 -16.7433 18.4374 -14.2032 16.914
7406 1 -13.173 -15.6811 -16.5905 -13.173 17.9762 17.0667
1740 1 -12.4467 -14.8121 -15.1748 21.2106 -14.8121 -15.1748
6965 1 -13.9306 -14.3277 -15.5102 -13.9306 19.3296 18.1471
14882 1 -11.7015 -14.7372 -15.8852 21.9558 18.92 17.7721
13919 1 -14.6092 -16.7572 -16.5769 19.048 16.9001 -16.5769
8965 1 -9.60461 -14.1212 -16.5229 24.0526 -14.1212 -16.5229
8301 1 -7.63752 -15.4228 -15.4657 -7.63752 -15.4228 -15.4657
9435 1 -6.69494 -15.2929 -16.626 26.9623 -15.2929 -16.626
3293 1 -6.51266 -15.072 -15.1243 -6.51266 -15.072 18.533
4572 1 -4.27341 -14.3697 -16.1515 -4.27341 19.2876 -16.1515
8669 1 -3.17088 -15.2761 -16.0613 -3.17088 -15.2761 -16.0613
5221 1 -2.6257 -13.8975 -16.6308 -2.6257 19.7598 -16.6308
9099 1 -1.24545 -13.5977 -16.4511 -1.24545 -13.5977 -16.4511
15718 1 -0.822878 -15.388 -16.6021 -0.822878 18.2692 -16.6021
8982 1 -15.3294 -0.0990548 -11.8294 18.3278 -0.0990548 -11.8294
8749 1 -0.469078 -0.401867 -6.68976 -0.469078 -0.401867 -6.68976
15107 1 -14.604 -13.1289 -16.0203 19.0532 -13.1289 17.637
9407 1 -12.9754 -14.2143 -16.1997 20.6818 -14.2143 -16.1997
1251 1 -11.7775 -12.9578 -15.913 -11.7775 20.6995 -15.913
7042 1 -11.2263 -13.7138 -16.4226 -11.2263 19.9435 17.2347
11190 1 -10.4024 -13.3963 -15.1904 -10.4024 -13.3963 18.4668
1268 1 -9.36561 -16.1929 -12.1098 -9.36561 17.4644 -12.1098
4859 1 -8.44212 -13.3279 -16.0008 -8.44212 20.3294 -16.0008
729 1 -9.52762 -12.7025 -16.4082 -9.52762 -12.7025 17.2491
6523 1 -7.23565 -12.8237 -16.4297 -7.23565 20.8335 17.2276
7848 1 -8.01062 -12.3729 -15.3186 -8.01062 21.2844 18.3387
8868 1 -6.90125 -13.7497 -16.0751 -6.90125 -13.7497 -16.0751
1087 1 -0.19584 -0.196926 -4.36631 -0.19584 -0.196926 -4.36631
8255 1 -3.23898 -13.4222 -15.6049 -3.23898 -13.4222 -15.6049
13157 1 -2.47057 -12.7099 -15.9436 -2.47057 20.9474 -15.9436
13080 1 -1.15872 -8.06654 -16.694 -1.15872 25.5907 -16.694
1378 1 -5.55407 -16.7436 -6.94727 -5.55407 -16.7436 -6.94727
1871 1 -15.5137 -11.9178 -16.5475 -15.5137 -11.9178 17.1098
3581 1 -13.4083 -13.0654 -15.7741 -13.4083 -13.0654 17.8832
1566 1 -13.8045 -11.6857 -15.947 -13.8045 -11.6857 -15.947
3519 1 -10.8949 -11.1534 -16.2366 -10.8949 -11.1534 17.4207
7426 1 -4.51389 -16.2791 -3.06069 -4.51389 17.3782 -3.06069
6529 1 -7.83517 -11.6967 -16.1741 -7.83517 -11.6967 17.4832
10691 1 -5.16121 -12.466 -16.4312 28.496 -12.466 17.226
1925 1 -3.93754 -12.296 -16.3469 -3.93754 -12.296 -16.3469
4476 1 -0.0582924 -13.9081 -11.2584 -0.0582924 -13.9081 -11.2584
2298 1 -2.98818 -11.2815 -16.1666 -2.98818 -11.2815 17.4907
5746 1 -14.504 -0.0576323 -4.20278 -14.504 -0.0576323 -4.20278
4007 1 -16.3852 -9.92578 -14.8942 -16.3852 -9.92578 18.7631
1527 1 -16.7848 -10.8848 -16.3161 -16.7848 -10.8848 -16.3161
603 1 -14.1715 -10.1098 -16.3564 -14.1715 -10.1098 -16.3564
16213 1 -2.72449 -0.0976124 -1.41545 -2.72449 -0.0976124 -1.41545
11155 1 -10.0812 -0.43278 -2.69573 -10.0812 -0.43278 -2.69573
1490 1 -15.2226 -16.725 -8.07898 -15.2226 -16.725 -8.07898
12827 1 -12.4456 -11.7729 -15.8668 -12.4456 21.8844 -15.8668
10949 1 -8.80703 -10.8707 -16.5041 24.8502 -10.8707 17.1531
1175 1 -10.3914 -10.0249 -15.4993 -10.3914 -10.0249 -15.4993
3722 1 -8.05687 -10.2394 -16.156 -8.05687 -10.2394 17.5012
5873 1 -9.02422 -0.187575 -11.0437 -9.02422 -0.187575 -11.0437
8860 1 -5.17659 -11.3533 -16.346 -5.17659 -11.3533 -16.346
3551 1 -4.4906 -10.0421 -15.1583 -4.4906 -10.0421 -15.1583
1732 1 -3.20122 -10.1534 -16.4869 -3.20122 -10.1534 -16.4869
10961 1 -1.95926 -10.4186 -16.098 -1.95926 -10.4186 17.5592
8956 1 -0.414688 -10.5356 -15.8416 -0.414688 -10.5356 -15.8416
6400 1 -0.382867 -8.26172 -4.91658 -0.382867 25.3955 -4.91658
2003 1 -1.55354 -5.19047 -0.139049 -35.2108 -5.19047 -0.139049
179 1 -13.0259 -8.98447 -15.939 -13.0259 -8.98447 -15.939
72 1 -12.0849 -9.22422 -16.6882 -12.0849 -9.22422 -16.6882
5503 1 -11.1327 -9.28946 -16.1249 -11.1327 24.3678 -16.1249
4034 1 -9.64629 -8.63618 -15.9122 -9.64629 -8.63618 17.7451
1536 1 -8.14194 -8.97474 -15.5972 -8.14194 -8.97474 -15.5972
1305 1 -6.13545 -9.38035 -15.5966 -6.13545 -9.38035 -15.5966
9268 1 -16.8199 -0.849164 -4.195 16.8374 -0.849164 -4.195
10054 1 -5.01402 -9.41041 -15.7497 -5.01402 -9.41041 -15.7497
2142 1 -2.45287 -0.906672 -14.4718 -2.45287 -0.906672 19.1854
11149 1 -2.91026 -9.12564 -16.6673 -2.91026 -9.12564 16.9899
11584 1 -1.54482 -8.83473 -15.5372 -1.54482 -8.83473 18.12
7964 1 -16.5889 -6.91781 -16.5754 -16.5889 26.7394 17.0818
53 1 -13.2461 -7.6052 -15.9904 -13.2461 -41.2625 -15.9904
14935 1 -11.9618 -7.92573 -16.0758 -11.9618 -7.92573 17.5815
7787 1 -10.1737 -0.0078224 -16.4665 -10.1737 -0.0078224 17.1907
12522 1 -10.4547 -7.75272 -16.3578 -10.4547 -7.75272 -16.3578
7639 1 -6.28197 -8.34448 -16.4991 -6.28197 -8.34448 17.1581
4295 1 -3.73754 -8.06906 -15.7979 -3.73754 -8.06906 -15.7979
1469 1 -7.48393 -0.656392 -1.13308 -7.48393 -0.656392 -1.13308
8503 1 -2.58352 -7.76746 -15.8272 -2.58352 -7.76746 -15.8272
3511 1 -15.4391 -6.56006 -16.2645 -15.4391 -6.56006 17.3928
1965 1 -14.5974 -5.63852 -16.5572 -14.5974 -5.63852 -16.5572
1953 1 -13.652 -6.24091 -16.7617 -13.652 -6.24091 -16.7617
6334 1 -12.9393 -6.43411 -15.4974 -12.9393 -6.43411 18.1599
6982 1 -11.4865 -6.32445 -16.2998 -11.4865 -6.32445 17.3575
2261 1 -9.39073 -7.25907 -16.1301 -9.39073 -7.25907 17.5272
11538 1 -7.64444 -6.81672 -15.492 26.0128 -6.81672 18.1653
2611 1 -6.68695 -6.17828 -15.396 -6.68695 -6.17828 18.2612
4465 1 -1.78701 -16.8189 -11.1324 -1.78701 16.8384 -11.1324
2873 1 -5.90442 -7.15593 -16.6203 -5.90442 -7.15593 17.037
4715 1 -4.51272 -6.77971 -16.5148 -4.51272 26.8775 -16.5148
81 1 -3.44968 -5.90401 -16.1934 -3.44968 -5.90401 -16.1934
5386 1 -2.35487 -6.57943 -15.9924 -2.35487 27.0778 -15.9924
64 1 -16.3751 -4.94274 -16.5762 -16.3751 -4.94274 -16.5762
10751 1 -15.2543 -4.54836 -15.7614 18.403 -4.54836 17.8958
3029 1 -12.5596 -4.39034 -16.5721 -12.5596 -4.39034 17.0852
1078 1 -6.86066 -3.57122 -0.702733 -6.86066 -3.57122 -0.702733
10069 1 -12.655 -5.15117 -15.7934 21.0023 -5.15117 -15.7934
2649 1 -11.4054 -4.95924 -16.6131 -11.4054 -4.95924 17.0441
1639 1 -10.2056 -5.32243 -16.3276 -10.2056 -5.32243 -16.3276
6 1 -9.26727 -5.28797 -15.1404 -9.26727 -5.28797 -15.1404
8191 1 -7.72031 -6.05936 -16.1619 -7.72031 -6.05936 17.4954
1912 1 -9.01031 -4.74199 -16.1665 -9.01031 -4.74199 -16.1665
4995 1 -6.7227 -4.8932 -16.0613 -6.7227 -4.8932 -16.0613
621 1 -5.77262 -5.05855 -14.9263 -5.77262 -5.05855 -14.9263
10259 1 -4.83365 -4.61712 -15.1849 -4.83365 -4.61712 -15.1849
13563 1 -3.42553 -4.06239 -15.7351 -3.42553 -4.06239 -15.7351
10316 1 -1.40146 -5.78438 -16.6021 -1.40146 -5.78438 17.0552
11978 1 -1.23636 -4.45151 -15.4166 -1.23636 -4.45151 18.2407
1707 1 -16.4804 -3.39909 -15.8004 -16.4804 -3.39909 -15.8004
2004 1 -4.91843 -8.599 -16.5732 -4.91843 -8.599 -16.5732
6501 1 -14.5776 -3.7767 -16.4191 -14.5776 -3.7767 17.2382
1363 1 -12.4256 -2.9775 -16.5326 -12.4256 -2.9775 -16.5326
2303 1 -11.4637 -4.03217 -16.2088 -11.4637 -4.03217 17.4485
9210 1 -16.821 -16.1043 -15.1096 16.8362 -16.1043 -15.1096
4724 1 -10.6269 -3.10226 -15.4957 -10.6269 -3.10226 -15.4957
3363 1 -9.13272 -3.41176 -15.7633 -9.13272 -3.41176 17.894
8056 1 -7.30318 -3.57639 -15.8589 -7.30318 -3.57639 17.7984
3424 1 -6.00516 -3.91452 -16.2655 -6.00516 -3.91452 17.3918
160 1 -6.54151 -2.85608 -16.2923 -6.54151 -2.85608 -16.2923
6214 1 -4.71185 -3.63664 -15.7516 -4.71185 -3.63664 17.9056
4308 1 -6.34032 -0.389886 -8.86401 -6.34032 -0.389886 -8.86401
15509 1 -2.22956 -4.2293 -15.8254 -2.22956 -4.2293 17.8318
13292 1 -1.52435 -3.59866 -16.1957 -1.52435 -3.59866 -16.1957
4522 1 -2.42697 -3.12644 -15.484 -2.42697 -3.12644 -15.484
6399 1 -0.507573 -1.29205 -1.09796 -0.507573 -1.29205 -1.09796
4094 1 -16.0412 -1.85371 -15.4356 -16.0412 -1.85371 -15.4356
4740 1 -3.72921 -0.0463511 -8.74956 -3.72921 -0.0463511 -8.74956
9339 1 -14.3132 -2.62333 -15.3298 19.344 -2.62333 -15.3298
4349 1 -12.5602 -1.62204 -15.8233 -12.5602 -1.62204 -15.8233
13690 1 -11.0314 -1.91829 -15.9813 22.6258 -1.91829 -15.9813
12420 1 -10.0503 -1.07541 -16.1977 23.607 -1.07541 -16.1977
1882 1 -7.24101 -1.88683 -14.8672 -7.24101 -1.88683 -14.8672
2110 1 -8.13518 -2.29267 -16.3104 -8.13518 -2.29267 17.3469
4994 1 -6.53786 -1.74473 -16.562 -6.53786 -1.74473 -16.562
9855 1 -1.17624 -4.64179 -0.999889 -1.17624 -4.64179 -0.999889
5248 1 -4.98439 -2.62677 -15.7646 -4.98439 -2.62677 -15.7646
2049 1 -3.57806 -2.73238 -16.0444 -3.57806 -2.73238 17.6128
10370 1 -1.48502 -2.18379 -16.1147 -1.48502 -2.18379 17.5426
10950 1 -8.38911 -0.341869 -2.95302 25.2681 -0.341869 -2.95302
11013 1 -14.638 -1.43839 -15.552 19.0192 -1.43839 18.1053
9060 1 -15.1838 -0.0492156 -15.8522 18.4735 -0.0492156 -15.8522
10238 1 -14.8498 -0.98668 -16.7885 18.8074 -0.98668 -16.7885
4299 1 -13.9966 0.000790595 -16.7493 -13.9966 0.000790595 -16.7493
3869 1 -11.6261 -0.71998 -16.2257 -11.6261 -0.71998 17.4316
344 1 -16.6749 -7.72884 -11.8453 -16.6749 -7.72884 -11.8453
4437 1 -5.90519 -16.7449 -3.21955 -5.90519 16.9124 -3.21955
14198 1 -0.25724 -4.01963 -4.22844 -0.25724 -4.01963 -4.22844
5308 1 -6.27998 -0.923547 -15.7676 -6.27998 -0.923547 -15.7676
1093 1 -5.24448 -0.797465 -15.219 -5.24448 -0.797465 -15.219
11161 1 -16.7801 -8.38777 -15.234 16.8772 -8.38777 18.4232
1986 1 -3.39699 -1.50839 -16.1277 -3.39699 -1.50839 -16.1277
10140 1 -2.42079 -0.609551 -15.7812 -2.42079 -0.609551 -15.7812
11732 1 -16.5102 -2.21084 -13.1811 17.147 -2.21084 20.4761
1884 1 -0.522556 -5.07116 -15.9968 -0.522556 -5.07116 -15.9968
15143 1 -0.351614 -1.33662 -16.8031 -0.351614 -1.33662 16.8542
5839 1 -16.452 -16.37 -14.1364 -16.452 17.2872 -14.1364
15121 1 -12.6094 -15.8991 -15.4064 21.0478 17.7582 18.2509
7298 1 -0.254925 -3.49739 -1.41301 -0.254925 -3.49739 32.2442
4514 1 -10.2443 -15.9509 -15.6144 -10.2443 17.7063 -15.6144
12986 1 -12.1913 -15.7994 -14.4695 -12.1913 17.8579 -14.4695
10044 1 -9.53485 -15.7871 -14.8778 -9.53485 17.8702 -14.8778
1171 1 -8.03909 -16.2267 -14.536 -41.6963 -16.2267 -14.536
1372 1 -5.99831 -16.5632 -15.1325 -5.99831 -16.5632 -15.1325
472 1 -5.8494 -15.1407 -14.1926 -5.8494 -15.1407 -14.1926
10321 1 -4.95779 -16.2856 -14.2432 -4.95779 -16.2856 19.4141
4720 1 -3.81776 -15.7767 -14.1653 -3.81776 17.8806 -14.1653
2354 1 -2.73389 -15.8728 -14.629 -2.73389 -15.8728 19.0283
6113 1 -1.57394 -16.1386 -15.2404 -1.57394 17.5187 -15.2404
15663 1 -2.26254 -16.539 -13.8474 31.3947 17.1182 19.8099
1438 1 -9.30927 -9.69771 -16.7332 -9.30927 -9.69771 -16.7332
10508 1 -0.426947 -16.6043 -15.5718 33.2303 -16.6043 18.0855
13955 1 -15.4752 -14.1331 -15.0104 18.182 19.5242 -15.0104
9236 1 -16.0007 -14.8555 -14.3369 17.6566 -14.8555 -14.3369
554 1 -13.6338 -15.5124 -15.2449 -13.6338 -15.5124 -15.2449
2429 1 -14.1441 -15.1904 -13.7326 -14.1441 -15.1904 19.9246
2372 1 -13.045 -14.7123 -14.2939 -13.045 -14.7123 19.3634
14445 1 -10.9889 -14.9963 -14.0429 22.6683 18.661 19.6144
15064 1 -10.0026 -14.4384 -15.6271 23.6547 -14.4384 18.0302
4124 1 -9.05367 -14.722 -13.9107 -9.05367 18.9352 -13.9107
5916 1 -5.21827 -14.8861 -15.2592 -5.21827 18.7711 -15.2592
8719 1 -3.91529 -14.6409 -15.1052 -3.91529 -14.6409 -15.1052
12146 1 -2.33685 -14.0467 -15.0626 -2.33685 -14.0467 18.5947
7898 1 -1.12409 -15.0366 -14.8233 -1.12409 18.6206 18.8339
9415 1 -15.9917 -12.6673 -15.084 17.6655 -12.6673 -15.084
7142 1 -3.3112 -0.272371 -0.141994 -3.3112 -0.272371 -0.141994
1176 1 -14.0714 -13.3751 -14.7477 -14.0714 -13.3751 -14.7477
14187 1 -11.7188 -13.3426 -14.7391 21.9384 20.3147 -14.7391
4054 1 -9.26637 -13.781 -14.4291 -9.26637 -13.781 19.2281
13813 1 -9.55447 -11.8531 -15.2721 24.1028 21.8041 -15.2721
4147 1 -8.46882 -13.2427 -13.9761 -8.46882 20.4146 -13.9761
74 1 -7.88314 -14.109 -15.0422 -7.88314 -14.109 -15.0422
9137 1 -6.80902 -13.4108 -14.6129 -6.80902 -13.4108 -14.6129
3482 1 -4.3251 -13.7339 -14.0679 -4.3251 19.9233 19.5893
3127 1 -5.81132 -13.6603 -15.0667 -5.81132 -13.6603 18.5906
13517 1 -3.36133 -12.703 -13.9461 -3.36133 20.9543 -13.9461
12244 1 -1.36238 -11.8493 -15.6757 32.2949 -11.8493 17.9815
8922 1 -1.139 -13.2617 -14.7478 -1.139 -13.2617 -14.7478
8402 1 -3.85768 -11.0418 -16.6791 -3.85768 -11.0418 -16.6791
10488 1 -15.3532 -12.6911 -14.0355 18.304 20.9662 19.6217
2051 1 -15.1341 -12.1635 -15.5432 -15.1341 -12.1635 18.1141
7900 1 -12.4701 -12.4493 -15.0661 -12.4701 21.2079 18.5911
7931 1 -14.3406 -11.7567 -14.9171 -14.3406 21.9006 18.7401
1331 1 -10.6504 -12.0786 -14.8495 -10.6504 -12.0786 -14.8495
10172 1 -10.9717 -12.7363 -13.8206 22.6855 -12.7363 -13.8206
336 1 -9.35643 -12.1569 -14.0122 -9.35643 -12.1569 -14.0122
1461 1 -8.32674 -11.7585 -14.4648 -8.32674 -11.7585 -14.4648
15864 1 -7.20359 -12.3567 -14.4882 -7.20359 21.3006 19.1691
357 1 -6.08532 -12.3189 -15.6146 -6.08532 -12.3189 -15.6146
1429 1 -4.50974 -13.1531 -15.4442 -4.50974 -13.1531 -15.4442
12016 1 -5.18655 -11.134 -14.709 -5.18655 -11.134 18.9482
6174 1 -3.95853 -11.4023 -14.1718 -3.95853 -11.4023 19.4855
9896 1 -2.07868 -11.7827 -14.7051 -2.07868 -11.7827 -14.7051
15834 1 -0.863005 -11.572 -14.2416 -0.863005 -11.572 19.4157
11606 1 -16.6021 -11.135 -13.785 17.0551 -11.135 -13.785
933 1 -2.14395 -1.00432 -0.604931 -2.14395 -1.00432 -0.604931
2548 1 -15.2104 -10.6008 -15.0408 -15.2104 -10.6008 18.6164
11856 1 -13.6714 -10.2473 -14.093 19.9858 -10.2473 19.5642
8215 1 -12.3593 -10.1908 -15.396 -12.3593 23.4665 18.2613
2488 1 -11.9912 -11.4593 -14.5546 -11.9912 -11.4593 19.1026
4235 1 -10.3452 -11.0409 -14.7936 -10.3452 22.6164 18.8636
733 1 -9.0073 -10.6748 -15.3226 -9.0073 -10.6748 -15.3226
8036 1 -6.94609 -11.1728 -15.0449 -6.94609 22.4844 18.6123
3074 1 -6.64811 -10.3318 -13.979 -6.64811 -10.3318 19.6782
8173 1 -5.70337 -10.548 -15.4831 -5.70337 23.1093 18.1741
389 1 -6.06891 -9.43522 -14.5534 -6.06891 -9.43522 -14.5534
9433 1 -3.66172 -11.8469 -15.2375 -3.66172 -11.8469 -15.2375
7037 1 -3.56889 -10.3648 -14.0654 -3.56889 23.2925 19.5919
6944 1 -3.03186 -10.4656 -15.2511 -3.03186 23.1917 18.4061
6428 1 -1.24171 -10.0969 -15.0425 -1.24171 23.5603 18.6148
1375 1 -15.816 -8.97029 -15.8449 -15.816 -8.97029 -15.8449
10344 1 -15.9075 -8.74503 -14.3849 17.7497 -8.74503 19.2723
13271 1 -14.3711 -9.68516 -15.4703 19.2861 23.9721 -15.4703
3528 1 -12.8309 -8.37593 -14.9966 -12.8309 -8.37593 -14.9966
13617 1 -11.2518 -9.24923 -14.7298 -11.2518 24.408 -14.7298
808 1 -8.91724 -9.40988 -14.9917 -8.91724 -9.40988 -14.9917
12045 1 -9.96553 -8.79708 -14.771 23.6917 -8.79708 18.8863
1426 1 -7.03863 -9.95104 -15.5339 -7.03863 -9.95104 -15.5339
9124 1 -6.09529 -8.1973 -14.4122 -6.09529 -8.1973 -14.4122
10528 1 -3.9676 -8.99602 -14.4044 -3.9676 -8.99602 19.2529
751 1 -3.13592 -9.08851 -15.4012 -3.13592 -9.08851 -15.4012
15709 1 -0.384707 -8.77537 -15.6562 -0.384707 24.8819 -15.6562
2361 1 -14.5033 -8.40996 -15.2332 -14.5033 -8.40996 18.424
13260 1 -15.6187 -7.20109 -15.4393 18.0385 26.4562 -15.4393
15275 1 -14.3186 -7.77146 -14.2182 19.3386 -7.77146 19.439
12226 1 -12.1725 -8.19958 -13.798 -12.1725 -8.19958 19.8592
5423 1 -10.3282 -7.45885 -15.2026 -10.3282 -7.45885 -15.2026
2147 1 -8.81586 -7.50986 -14.7096 -8.81586 -7.50986 18.9476
741 1 -9.462 -6.67959 -13.6167 -9.462 -6.67959 -13.6167
10984 1 -7.42208 -9.09493 -14.1892 26.2352 -9.09493 19.468
12169 1 -7.64891 -7.97804 -14.5459 -7.64891 -7.97804 -14.5459
1760 1 -6.75669 -7.33523 -15.1708 -6.75669 -7.33523 -15.1708
503 1 -6.99892 -8.41707 -15.7558 -6.99892 -8.41707 -15.7558
1843 1 -5.47945 -7.98038 -15.8568 -5.47945 -7.98038 -15.8568
8083 1 -4.6451 -7.80244 -14.8912 -4.6451 -7.80244 18.7661
5261 1 -2.57378 -7.50146 -14.475 -2.57378 -7.50146 -14.475
11182 1 -1.16276 -8.41259 -14.1664 -1.16276 -8.41259 19.4909
4619 1 -16.4883 -6.13898 -14.9555 -16.4883 -6.13898 -14.9555
13987 1 -15.1489 -5.82797 -14.9642 18.5084 -5.82797 -14.9642
11708 1 -13.3923 -7.35672 -14.4634 -13.3923 -7.35672 19.1938
8057 1 -14.1546 -6.94125 -15.4758 -14.1546 -6.94125 -15.4758
335 1 -11.6383 -6.82914 -14.809 -11.6383 -6.82914 -14.809
5025 1 -10.4922 -6.0797 -15.4686 -10.4922 -6.0797 -15.4686
12503 1 -9.0727 -6.52678 -15.2774 24.5846 27.1305 -15.2774
11381 1 -5.10733 -6.01548 -15.4954 28.5499 -6.01548 18.1619
1578 1 -4.39727 -6.39665 -13.9751 -4.39727 -6.39665 -13.9751
7366 1 -5.81178 -5.97651 -14.2689 -5.81178 -5.97651 19.3883
8505 1 -4.14427 -5.90365 -15.1099 -4.14427 -5.90365 -15.1099
2324 1 -2.32123 -6.24889 -13.8065 -2.32123 -6.24889 19.8507
3015 1 -0.336018 -7.24704 -15.8807 -0.336018 -7.24704 17.7765
2250 1 -1.08746 -6.12679 -15.326 -1.08746 -6.12679 18.3312
2198 1 -16.6896 -4.83617 -15.0222 -16.6896 -4.83617 18.6351
4711 1 -13.796 -5.16302 -15.535 -13.796 28.4942 -15.535
480 1 -11.53 -5.53319 -14.9772 -11.53 -5.53319 -14.9772
3070 1 -10.8584 -4.58534 -15.2836 -10.8584 -4.58534 18.3737
13798 1 -10.6409 -4.65037 -14.0458 23.0164 29.0069 -14.0458
3405 1 -7.71213 -4.94437 -15.3652 -7.71213 -4.94437 18.2921
1866 1 -8.37153 -4.99635 -14.5854 -8.37153 -4.99635 -14.5854
12350 1 -7.21677 -5.53234 -14.0908 -7.21677 28.1249 -14.0908
11792 1 -3.5195 -4.69084 -14.1395 -3.5195 -4.69084 19.5178
1625 1 -2.51496 -5.63236 -15.313 -2.51496 -5.63236 -15.313
9950 1 -2.30044 -5.0815 -13.8867 -2.30044 -5.0815 -13.8867
12615 1 -0.104572 -5.27038 -14.4679 -0.104572 28.3869 -14.4679
14908 1 -15.6698 -4.00706 -14.7455 17.9874 -4.00706 18.9118
12580 1 -14.3539 -4.29807 -14.6285 -14.3539 -4.29807 -14.6285
4176 1 -14.6931 -2.89311 -13.9454 -14.6931 -2.89311 -13.9454
11112 1 -13.346 -3.70238 -14.8638 20.3113 -3.70238 18.7934
9678 1 -11.8517 -3.71269 -14.5797 21.8055 -3.71269 -14.5797
2264 1 -9.43202 -3.92202 -14.5368 -9.43202 -3.92202 19.1204
11676 1 -8.22309 -3.835 -14.2017 25.4342 -3.835 19.4555
3263 1 -6.89614 -4.32478 -14.5038 -6.89614 -4.32478 19.1534
4345 1 -6.64264 -3.1293 -14.7578 -6.64264 -3.1293 -14.7578
696 1 -5.46844 -3.56318 -15.0116 -5.46844 -3.56318 -15.0116
7275 1 -2.97539 -3.42027 -14.6084 -2.97539 30.237 19.0488
9673 1 -2.19482 -3.48931 -13.8067 -2.19482 -3.48931 -13.8067
5834 1 -0.92786 -2.61203 -14.2713 -0.92786 -2.61203 -14.2713
8716 1 -0.825566 -3.43667 -15.2882 -0.825566 -3.43667 -15.2882
5841 1 -16.357 -1.64952 -14.3351 -16.357 -1.64952 -14.3351
13423 1 -15.9991 -3.54352 -13.3347 17.6581 -3.54352 -13.3347
323 1 -15.0775 -2.21356 -14.6601 -15.0775 -2.21356 -14.6601
4973 1 -13.657 -1.83872 -14.0405 -13.657 -1.83872 -14.0405
15950 1 -13.3235 -2.39246 -14.9347 20.3337 -2.39246 18.7225
4789 1 -11.8197 -2.39536 -15.5726 -11.8197 -2.39536 -15.5726
1894 1 -12.5331 -2.73703 -14.304 -12.5331 -2.73703 -14.304
15923 1 -9.8266 -2.22353 -15.4449 23.8306 -2.22353 18.2124
6303 1 -11.4296 -1.75118 -14.6932 -11.4296 -1.75118 18.9641
10037 1 -10.8216 -2.77495 -14.2496 -10.8216 -2.77495 -14.2496
12912 1 -8.63632 -2.04524 -14.2716 25.0209 -2.04524 19.3857
5385 1 -5.12011 -1.83024 -14.9335 -5.12011 -1.83024 -14.9335
5575 1 -3.0956 -2.00671 -14.8892 -3.0956 -2.00671 -14.8892
5941 1 -2.13369 -1.85385 -15.2041 -2.13369 -1.85385 -15.2041
8786 1 -12.8909 -12.3623 -16.7237 20.7663 -12.3623 -16.7237
9266 1 -14.0543 -0.904886 -14.7018 19.6029 -0.904886 -14.7018
7160 1 -13.3838 -0.873602 -15.5407 -13.3838 -0.873602 18.1165
2135 1 -11.8906 -0.321802 -15.0161 -11.8906 -0.321802 18.6412
11507 1 -10.8143 -0.817148 -15.2629 22.843 -0.817148 18.3944
914 1 -10.1266 -1.78875 -14.3524 -10.1266 -1.78875 -14.3524
13678 1 -9.03367 -0.777586 -14.4439 -9.03367 -0.777586 -14.4439
5740 1 -7.91809 -0.420817 -14.7775 -7.91809 -0.420817 -14.7775
9756 1 -8.94817 -1.43424 -15.4091 24.7091 -35.0915 -15.4091
6851 1 -6.51091 -1.03453 -14.3386 -6.51091 -1.03453 19.3186
5010 1 -16.8198 -11.0976 -9.19167 -16.8198 22.5597 -9.19167
3747 1 -3.70246 -0.861297 -15.0129 -3.70246 -0.861297 18.6443
11163 1 -0.970772 -1.28917 -14.7107 -0.970772 -1.28917 18.9466
1119 1 -0.991082 -0.529579 -16.074 -0.991082 -0.529579 -16.074
3427 1 -16.7572 -15.7319 -13.1926 -16.7572 -15.7319 -13.1926
3569 1 -0.557981 -15.3997 -9.08816 -0.557981 -15.3997 24.5691
9308 1 -14.7334 -16.7807 -13.1385 18.9238 -16.7807 -13.1385
761 1 -14.6108 -15.2625 -12.7649 -14.6108 -15.2625 -12.7649
9535 1 -14.995 -15.9391 -14.1071 18.6623 -15.9391 -14.1071
1924 1 -12.9383 -16.0055 -13.4644 -12.9383 -16.0055 -13.4644
1291 1 -7.85782 -16.5865 -10.4979 -7.85782 -16.5865 -10.4979
11325 1 -11.4447 -15.6166 -13.2988 22.2125 -15.6166 20.3584
3110 1 -9.64728 -15.8961 -13.5136 -9.64728 -15.8961 20.1437
462 1 -7.9634 -16.3177 -13.0063 -7.9634 -16.3177 -13.0063
1968 1 -6.84538 -16.5198 -12.8068 -6.84538 -16.5198 -12.8068
9119 1 -6.71933 -16.1293 -14.2291 -6.71933 -16.1293 -14.2291
727 1 -6.13275 -15.052 -12.9798 -6.13275 -15.052 -12.9798
6769 1 -5.60013 -16.3717 -13.2994 -5.60013 -16.3717 20.3578
12371 1 -2.8991 -16.4316 -12.9484 -2.8991 17.2257 -12.9484
3335 1 -1.53489 -15.7981 -13.5942 -1.53489 -15.7981 -13.5942
15661 1 -0.617401 -16.1574 -13.3519 33.0399 17.4999 -13.3519
1810 1 -15.6814 -15.26 -13.1412 -15.6814 -15.26 -13.1412
7746 1 -13.0943 -14.5767 -12.9614 -13.0943 -14.5767 20.6959
4402 1 -14.1593 -13.9591 -12.6585 -14.1593 19.6981 -12.6585
13957 1 -12.248 -14.4239 -13.5034 21.4092 19.2333 -13.5034
13367 1 -9.4847 -14.1436 -12.6103 24.1726 19.5137 -12.6103
4794 1 -10.6407 -14.4623 -12.7696 -10.6407 19.1949 -12.7696
1743 1 -8.63464 -15.1827 -12.5651 -8.63464 -15.1827 -12.5651
5217 1 -8.64683 -13.7649 -13.0633 -8.64683 19.8924 -13.0633
9845 1 -7.99525 -15.0931 -13.7861 25.662 -15.0931 -13.7861
523 1 -6.89719 -14.4431 -13.9828 -6.89719 -14.4431 -13.9828
5700 1 -4.63977 -15.0338 -13.925 -4.63977 18.6234 -13.925
8261 1 -3.666 -15.0991 -12.976 29.9913 -15.0991 -12.976
2126 1 -2.11594 -14.9743 -14.1164 -2.11594 -14.9743 19.5409
7719 1 -0.915451 -14.5689 -13.4721 -0.915451 19.0883 20.1851
12752 1 -9.41896 -1.8462 -0.175852 24.2383 -1.8462 -0.175852
13535 1 -16.7714 -13.3243 -12.8544 16.8858 20.333 -12.8544
2399 1 -15.1407 -13.2934 -13.2197 -15.1407 -13.2934 20.4375
5296 1 -14.1419 -12.3961 -13.8147 -14.1419 21.2612 -13.8147
15396 1 -13.5876 -13.7576 -13.5641 20.0696 19.8996 20.0932
12677 1 -12.9035 -12.5218 -13.5925 20.7538 21.1355 -13.5925
8850 1 -12.0465 -13.1798 -13.2199 21.6107 -13.1798 -13.2199
6436 1 -10.7678 -13.5819 -12.0798 -10.7678 20.0753 21.5774
1435 1 -11.0217 -13.7824 -14.142 -11.0217 -13.7824 -14.142
10492 1 -10.5047 -12.5301 -12.9031 23.1525 -12.5301 20.7542
5136 1 -10.1094 -13.2926 -13.5858 -10.1094 20.3647 -13.5858
14378 1 -7.49689 -13.4739 -12.623 -7.49689 -13.4739 21.0343
5100 1 -5.69371 -14.2085 -13.6602 -5.69371 19.4488 -13.6602
3683 1 -5.1964 -13.3654 -12.9369 -5.1964 -13.3654 20.7204
12351 1 -3.00526 -13.89 -13.5946 30.652 19.7672 -13.5946
2710 1 -3.89814 -13.0589 -12.5106 -3.89814 -13.0589 21.1467
7644 1 -1.74833 -13.6556 -13.876 -1.74833 20.0016 19.7812
9859 1 -0.323357 -13.4403 -13.934 -0.323357 -13.4403 -13.934
8734 1 -16.0069 -12.0092 -12.8131 17.6504 -12.0092 -12.8131
397 1 -12.0106 -12.0474 -12.5193 -12.0106 -12.0474 -12.5193
767 1 -10.4164 -11.481 -13.6649 -10.4164 -11.481 -13.6649
5290 1 -8.29923 -11.864 -12.8955 -8.29923 -11.864 -12.8955
13962 1 -6.66867 -12.8686 -13.4578 26.9886 -12.8686 -13.4578
951 1 -7.07631 -11.5804 -13.4416 -7.07631 -11.5804 -13.4416
8018 1 -6.18327 -12.3976 -12.2118 -6.18327 21.2597 -12.2118
5990 1 -6.18551 -11.8117 -14.1259 -6.18551 -11.8117 -14.1259
6994 1 -5.25654 -12.1942 -13.4126 -5.25654 -12.1942 20.2447
4386 1 -4.55332 -11.2073 -12.7286 -4.55332 -11.2073 -12.7286
7430 1 -3.28414 -11.7108 -12.6931 -3.28414 -11.7108 20.9642
4680 1 -2.07945 -12.2417 -13.7002 -2.07945 21.4155 -13.7002
1665 1 -1.4033 -11.6341 -12.6522 -1.4033 -11.6341 -12.6522
849 1 -14.5678 -10.5759 -12.7533 -14.5678 -10.5759 -12.7533
6302 1 -12.8755 -11.4367 -13.8649 -12.8755 22.2206 -13.8649
9443 1 -13.6246 -10.1207 -12.8965 20.0326 -10.1207 -12.8965
14266 1 -14.0862 -11.5357 -13.1333 19.5711 22.1215 -13.1333
2658 1 -11.6258 -11.0205 -12.9573 -11.6258 -11.0205 20.6999
5720 1 -10.3918 -10.1802 -14.205 -10.3918 23.4771 -14.205
12935 1 -10.7018 -10.5366 -12.9521 22.9555 -10.5366 -12.9521
6380 1 -8.33439 -9.97277 -13.8742 -8.33439 -9.97277 -13.8742
3131 1 -8.38536 -10.4248 -12.4308 -8.38536 -10.4248 -12.4308
9599 1 -5.95797 -10.1494 -12.7329 -5.95797 -10.1494 -12.7329
1895 1 -5.33762 -10.1725 -13.759 -5.33762 -10.1725 -13.759
4581 1 -3.41716 -10.4943 -13.008 -3.41716 -10.4943 -13.008
7279 1 -1.91972 -10.8574 -13.6216 -1.91972 -10.8574 -13.6216
8415 1 -2.19236 -9.7256 -14.694 -2.19236 -9.7256 -14.694
9183 1 -0.681521 -10.449 -13.7514 -0.681521 -10.449 -13.7514
15631 1 -15.7461 -9.61537 -13.7452 17.9111 24.0419 19.9121
12056 1 -14.7056 -9.43205 -14.392 -14.7056 -9.43205 19.2652
12515 1 -14.1405 -8.70396 -11.3846 19.5168 24.9533 -11.3846
10043 1 -13.721 -8.64282 -12.9649 19.9363 -8.64282 -12.9649
5986 1 -12.4796 -9.23203 -14.0556 -12.4796 -9.23203 -14.0556
1444 1 -11.5788 -9.98651 -13.8292 -11.5788 -9.98651 -13.8292
12587 1 -11.2456 -9.05354 -13.369 22.4117 -9.05354 -13.369
2736 1 -10.2743 -8.41072 -13.7467 -10.2743 -8.41072 19.9106
6929 1 -10.5822 -8.42185 -11.9966 -10.5822 -8.42185 -11.9966
11712 1 -9.31335 -10.34 -13.5311 24.3439 -10.34 20.1261
1687 1 -6.88275 -8.60302 -13.25 -6.88275 -8.60302 -13.25
1017 1 -5.25018 -9.08478 -13.8575 -5.25018 -9.08478 -13.8575
7070 1 -4.29555 -8.60409 -12.8588 -4.29555 -8.60409 20.7984
12340 1 -3.39563 -9.42066 -13.0793 -3.39563 -9.42066 20.5779
310 1 -2.58966 -8.64096 -13.6539 -2.58966 -8.64096 -13.6539
654 1 -2.88302 -0.153242 -11.511 -2.88302 -0.153242 -11.511
9300 1 -0.09029 -8.70056 -12.8102 -0.09029 -8.70056 -12.8102
616 1 -0.921192 -9.52312 -14.1494 -0.921192 -9.52312 -14.1494
5994 1 -16.1023 -8.38335 -13.3303 -16.1023 25.2739 -13.3303
2398 1 -12.1746 -7.18753 -12.5368 -12.1746 -7.18753 21.1204
10003 1 -11.2825 -6.91663 -13.6244 22.3748 -6.91663 -13.6244
11445 1 -8.16281 -7.39008 -13.1324 25.4944 -7.39008 20.5249
740 1 -9.03965 -8.55053 -13.9064 -9.03965 -8.55053 -13.9064
3004 1 -5.35146 -7.28836 -14.3913 -5.35146 -7.28836 19.266
797 1 -2.52998 -7.60472 -13.2759 -2.52998 -7.60472 -13.2759
5563 1 -4.21465 -7.45024 -13.3847 -4.21465 -7.45024 -13.3847
13477 1 -1.47407 -7.07445 -13.1086 -1.47407 26.5828 -13.1086
8500 1 -15.4743 -7.34393 -14.1342 18.1829 -7.34393 -14.1342
13208 1 -16.0516 -7.10798 -12.672 17.6057 -7.10798 -12.672
9927 1 -14.7441 -6.05802 -13.43 18.9131 -6.05802 -13.43
12159 1 -13.7398 -6.81296 -12.9463 -13.7398 -6.81296 20.711
8524 1 -12.775 -6.91733 -13.782 20.8822 -6.91733 -13.782
793 1 -11.3338 -5.83488 -13.7652 -11.3338 -5.83488 -13.7652
1841 1 -10.6196 -6.39018 -12.1749 -10.6196 -6.39018 -12.1749
1975 1 -9.17994 -5.48355 -13.8824 -9.17994 -5.48355 -13.8824
618 1 -8.00341 -5.85501 -13.3231 25.6538 -5.85501 -13.3231
205 1 -7.70501 -6.8534 -14.2199 -7.70501 -6.8534 -14.2199
4172 1 -6.90802 -6.39522 -13.247 -6.90802 27.262 -13.247
14616 1 -5.32843 -6.76834 -13.3414 -5.32843 -6.76834 20.3158
4205 1 -6.11908 -5.02217 -13.2585 -6.11908 28.6351 -13.2585
10070 1 -4.15612 -6.02557 -11.9662 -4.15612 -6.02557 -11.9662
2117 1 -3.60241 -5.82088 -13.5552 -3.60241 -5.82088 -13.5552
10764 1 -2.60432 -5.86962 -12.2577 31.0529 -5.86962 21.3996
1702 1 -1.11288 -5.74846 -13.4955 -1.11288 -5.74846 -13.4955
13829 1 -0.458812 -6.84832 -14.4635 -0.458812 -6.84832 -14.4635
3974 1 -15.8839 -5.70378 -13.449 -15.8839 -5.70378 20.2083
4527 1 -16.7321 -4.15725 -12.6027 -16.7321 -4.15725 -12.6027
9529 1 -15.1329 -4.35403 -12.9207 18.5243 -4.35403 -12.9207
5279 1 -13.9196 -5.6528 -13.862 -13.9196 -5.6528 -13.862
7056 1 -13.7952 -4.83162 -13.1308 -13.7952 -4.83162 20.5264
8744 1 -13.2861 -3.91956 -13.8943 20.3711 -3.91956 -13.8943
5522 1 -12.7817 -5.43929 -14.0649 -12.7817 -5.43929 -14.0649
12555 1 -10.9451 -3.54137 -12.4892 22.7121 -3.54137 -12.4892
8179 1 -10.6173 -5.33078 -12.8683 -10.6173 -5.33078 20.7889
2054 1 -9.47532 -4.61401 -13.3214 -9.47532 -4.61401 20.3358
22 1 -8.35787 -4.6018 -12.721 -8.35787 -4.6018 -12.721
5052 1 -5.85955 -4.02745 -13.0359 -5.85955 -4.02745 -13.0359
1408 1 -4.88401 -5.26568 -14.0854 -4.88401 -5.26568 -14.0854
287 1 -1.51524 -4.29195 -14.1089 -1.51524 29.3653 -14.1089
13163 1 -15.5717 -3.13337 -12.3549 18.0855 -3.13337 -12.3549
3763 1 -12.4619 -3.87789 -12.9964 -12.4619 -3.87789 20.6609
15602 1 -10.5838 -3.71892 -13.5709 23.0734 -3.71892 20.0863
8616 1 -9.54529 -3.15975 -13.4333 -9.54529 -3.15975 -13.4333
1032 1 -7.47186 -3.44861 -13.4094 -7.47186 -3.44861 -13.4094
324 1 -5.58003 -3.51946 -13.8653 -5.58003 -3.51946 -13.8653
1590 1 -4.48158 -4.16345 -13.6825 -4.48158 -4.16345 -13.6825
16068 1 -5.03685 -2.91749 -12.5032 28.6204 -2.91749 -12.5032
1076 1 -3.72826 -3.77678 -12.3047 -3.72826 -3.77678 -12.3047
6725 1 -3.05703 -3.23045 -13.2866 -3.05703 -3.23045 20.3707
13161 1 -0.0831125 -3.65455 -12.7387 -0.0831125 -3.65455 -12.7387
7670 1 -14.8303 -2.25023 -12.8696 -14.8303 -2.25023 20.7876
5178 1 -12.9478 -2.00027 -13.3313 -12.9478 -2.00027 -13.3313
8224 1 -11.9237 -2.294 -13.2607 21.7336 -35.9513 -13.2607
1763 1 -9.95341 -1.95403 -13.0571 -9.95341 -1.95403 -13.0571
4983 1 -8.81098 -1.81021 -12.8596 -8.81098 -1.81021 -12.8596