ITEM: TIMESTEP
10000
ITEM: NUMBER OF ATOMS
16384
ITEM: BOX BOUNDS pp pp pp
-1.6828627036276380e+01 1.6828627036276380e+01
-1.6828627036276380e+01 1.6828627036276380e+01
-1.6828627036276380e+01 1.6828627036276380e+01
ITEM: ATOMS id type x y z xu yu zu
15502 1 -11.8235 -0.419337 -0.909856 21.8337 -0.419337 -0.909856
9688 1 -0.581732 -12.948 -7.28099 -0.581732 -12.948 -7.28099
44 1 -15.4399 -15.3408 -15.8073 -15.4399 -15.3408 17.85
74 1 -14.2542 -15.7765 -16.0368 -14.2542 -15.7765 -16.0368
8709 1 -10.2054 -9.09232 -16.8078 -10.2054 -9.09232 -16.8078
8662 1 -10.1964 -16.1636 -15.5513 23.4608 -16.1636 -15.5513
5551 1 -12.1464 -16.4776 -16.2656 -12.1464 17.1797 -16.2656
6369 1 -9.29439 -16.1484 -16.4979 -9.29439 17.5088 17.1594
4947 1 -2.42342 -15.6448 -15.3026 -2.42342 18.0124 -15.3026
2354 1 -1.33244 -15.1208 -15.9672 -1.33244 -15.1208 17.6901
13776 1 -16.4488 -7.58312 -8.14959 17.2084 26.0741 -8.14959
13311 1 -13.2948 -15.0742 -0.296687 -13.2948 18.583 -0.296687
3581 1 -14.4075 -14.6775 -16.1081 -14.4075 -14.6775 17.5492
6190 1 -15.1997 -15.1208 -14.6518 -15.1997 18.5365 19.0054
8965 1 -10.7683 -14.5247 -15.3587 22.889 -14.5247 -15.3587
234 1 -13.1032 -14.0476 -15.7563 -13.1032 -14.0476 -15.7563
7734 1 -11.224 -16.0535 -16.5044 -11.224 17.6037 17.1528
9137 1 -9.85021 -15.0253 -14.5866 -9.85021 -15.0253 -14.5866
472 1 -8.01616 -15.2276 -16.048 -8.01616 -15.2276 -16.048
14517 1 -12.6002 -2.16187 -0.287955 21.057 -2.16187 -0.287955
8868 1 -5.33718 -16.4607 -16.2411 -5.33718 -16.4607 -16.2411
6277 1 -7.51794 -14.287 -16.7419 -7.51794 19.3703 16.9153
11107 1 -5.42227 -15.14 -16.3585 28.235 -15.14 17.2987
5641 1 -3.16715 -14.7927 -15.8242 -3.16715 18.8646 -15.8242
13665 1 -0.418455 -15.0064 -16.7688 -0.418455 18.6508 -16.7688
9896 1 -1.91366 -14.0416 -15.2077 -1.91366 -14.0416 -15.2077
4387 1 -15.7682 -13.1796 -15.818 -15.7682 20.4777 17.8393
15615 1 -13.8903 -13.4672 -16.1414 -13.8903 20.19 17.5159
1812 1 -14.2231 -13.119 -14.9897 -14.2231 -13.119 -14.9897
11112 1 -14.8888 -12.5313 -16.3486 18.7685 -12.5313 17.3086
12580 1 -16.6385 -8.08454 -12.7638 -16.6385 -8.08454 -12.7638
13638 1 -15.8523 -16.4319 -1.78416 17.8049 17.2253 -1.78416
13280 1 -16.3708 -10.348 -1.98541 17.2865 -10.348 -1.98541
2629 1 -8.43799 -13.9119 -15.5676 -8.43799 -13.9119 18.0897
1535 1 -7.82602 -12.8781 -16.0993 -7.82602 -12.8781 17.5579
4817 1 -7.14317 -14.1703 -14.9706 -7.14317 19.487 -14.9706
5027 1 -6.29364 -13.9518 -16.8292 -6.29364 19.7054 -16.8292
6275 1 -5.03024 -13.7036 -16.107 -5.03024 -13.7036 -16.107
1117 1 -8.40479 -0.123813 -7.17274 -8.40479 -0.123813 -7.17274
13447 1 -2.81317 -13.4912 -16.2422 30.8441 20.1661 -16.2422
6314 1 -11.4458 -16.5722 -6.74441 -11.4458 17.085 26.9128
6944 1 -2.06212 -12.5796 -16.296 -2.06212 21.0776 17.3613
14507 1 -0.0726692 -13.7986 -16.5959 -0.0726692 -13.7986 -16.5959
4128 1 -2.92743 -15.6246 -16.4393 -2.92743 18.0326 -16.4393
1956 1 -15.0311 -0.610185 -5.17087 -15.0311 -0.610185 -5.17087
5101 1 -15.6432 -12.1336 -15.0339 -15.6432 -12.1336 -15.0339
8215 1 -11.9041 -13.1957 -15.8936 -11.9041 20.4615 17.7637
3722 1 -10.6651 -11.8932 -15.8234 -10.6651 -11.8932 17.8338
2742 1 -9.40131 -13.2651 -16.1608 -9.40131 -13.2651 17.4964
6529 1 -6.92303 -12.4799 -14.8128 -6.92303 -12.4799 18.8445
1065 1 -13.0906 -16.0874 -11.652 -13.0906 -16.0874 -11.652
7644 1 -4.3376 -11.4264 -15.7948 -4.3376 22.2308 17.8625
8255 1 -2.76037 -11.598 -15.4104 -2.76037 -11.598 -15.4104
3683 1 -1.40051 -11.4881 -15.5889 -1.40051 -11.4881 18.0684
12768 1 -5.17494 -16.2851 -11.3903 28.4823 17.3722 -11.3903
1830 1 -15.9414 -9.55452 -16.6874 17.7158 -9.55452 -16.6874
12045 1 -14.922 -11.5959 -15.5326 18.7353 -11.5959 18.1247
1536 1 -12.6223 -10.6372 -15.7934 -12.6223 -10.6372 -15.7934
2341 1 -13.2259 -11.4147 -16.3311 -13.2259 -11.4147 17.3261
12683 1 -16.7939 -16.7265 -3.63304 16.8634 16.9308 -3.63304
6523 1 -10.4395 -10.792 -16.5557 -10.4395 22.8652 17.1016
4859 1 -8.90096 -11.8792 -16.2315 -8.90096 21.7781 -16.2315
1305 1 -8.16343 -10.6295 -16.4153 -8.16343 -10.6295 -16.4153
3327 1 -6.41676 -0.481884 -10.2171 -6.41676 -0.481884 -10.2171
2426 1 -5.8212 -11.9678 -14.9869 -5.8212 -11.9678 18.6703
9935 1 -6.56827 -11.1537 -16.396 27.089 -11.1537 17.2613
6566 1 -5.18631 -10.9816 -16.1199 -5.18631 22.6756 17.5374
2274 1 -4.81654 -16.823 -12.7115 -4.81654 -16.823 -12.7115
7142 1 -2.11087 -0.135838 -1.29636 -2.11087 -0.135838 -1.29636
16312 1 -0.671559 -10.4721 -15.8918 -0.671559 23.1851 17.7654
15526 1 -16.6406 -8.87768 -15.4841 17.0167 24.7796 18.1732
9190 1 -14.8721 -10.2816 -16.7351 18.7852 -10.2816 16.9222
5025 1 -14.9427 -8.51312 -16.5713 -14.9427 -8.51312 -16.5713
603 1 -13.4228 -8.37107 -15.8788 -13.4228 -8.37107 -15.8788
1438 1 -11.4944 -10.9082 -15.6428 -11.4944 -10.9082 -15.6428
729 1 -12.4324 -8.99286 -16.7003 -12.4324 -8.99286 16.957
10949 1 -11.2014 -9.42358 -15.9353 22.4559 -9.42358 17.7219
12503 1 -9.04925 -8.08676 -15.8812 24.608 25.5705 -15.8812
7136 1 -5.84744 -0.571485 -7.2065 -5.84744 -0.571485 -7.2065
9644 1 -14.3231 -0.0633947 -9.2133 19.3342 -0.0633947 -9.2133
8503 1 -6.50138 -9.32984 -15.7862 -6.50138 -9.32984 -15.7862
1895 1 -5.67428 -8.51928 -15.559 -5.67428 -8.51928 -15.559
13287 1 -5.04501 -9.049 -16.4782 -5.04501 -9.049 -16.4782
985 1 -13.298 -16.3115 -0.536701 -13.298 -16.3115 -0.536701
5457 1 -10.7299 -0.98602 -8.07427 -10.7299 -0.98602 -8.07427
5181 1 -1.60793 -7.9174 -16.3303 -1.60793 25.7399 -16.3303
4658 1 -14.7495 -1.74238 -16.2376 -14.7495 -1.74238 -16.2376
4034 1 -15.118 -8.12763 -15.2737 -15.118 -8.12763 18.3835
5102 1 -9.39242 -16.6481 -11.1899 -9.39242 17.0091 -11.1899
13357 1 -0.156028 -4.11418 -9.31319 33.5012 -4.11418 -9.31319
2738 1 -8.98818 -0.033945 -6.26613 -8.98818 -0.033945 -6.26613
7239 1 -10.7165 -8.49046 -15.9812 -10.7165 25.1668 17.6761
14402 1 -7.08698 -7.7819 -15.343 26.5703 -7.7819 18.3143
4995 1 -7.6217 -7.57832 -14.1501 -7.6217 -7.57832 -14.1501
3130 1 -5.68012 -7.12189 -15.9773 -5.68012 -7.12189 17.68
1481 1 -3.8379 -8.0257 -16.632 -3.8379 -8.0257 -16.632
2250 1 -1.98454 -8.06645 -14.8474 -1.98454 -8.06645 18.8098
4373 1 -0.575203 -7.22885 -16.2687 -0.575203 -7.22885 -16.2687
1894 1 -15.9753 -6.53383 -16.3006 -15.9753 -6.53383 -16.3006
4708 1 -7.83704 -16.5575 -5.09398 -7.83704 -16.5575 -5.09398
2572 1 -15.0947 -6.84027 -15.8165 -15.0947 -6.84027 17.8408
8616 1 -12.5875 -6.16076 -15.8807 -12.5875 -6.16076 -15.8807
1639 1 -10.1692 -6.78742 -15.5772 -10.1692 -6.78742 -15.5772
14116 1 -9.5084 -5.40132 -16.471 24.1489 28.2559 -16.471
5703 1 -16.7199 -4.15444 -10.0327 -16.7199 -4.15444 -10.0327
2185 1 -5.91632 -6.04294 -15.7069 -5.91632 -6.04294 17.9504
8505 1 -4.9024 -5.75405 -15.8853 -4.9024 -5.75405 -15.8853
13632 1 -4.6753 -7.2261 -16.7393 -4.6753 -7.2261 -16.7393
5386 1 -2.73487 -5.21619 -16.4347 -2.73487 28.4411 -16.4347
1152 1 -2.34921 -6.53521 -14.7577 -2.34921 -6.53521 18.8996
11978 1 -0.644798 -6.27184 -15.4582 -0.644798 -6.27184 18.199
7604 1 -9.33149 -15.9418 -2.35345 -9.33149 17.7155 -2.35345
791 1 -16.4635 -5.34096 -15.8422 -16.4635 -5.34096 -15.8422
4789 1 -14.2193 -4.80933 -15.783 -14.2193 -4.80933 -15.783
15696 1 -0.470176 -0.212483 -1.21322 -0.470176 -0.212483 -1.21322
4648 1 -11.8545 -5.13186 -15.3982 -11.8545 -5.13186 -15.3982
11517 1 -10.4755 -5.30118 -15.9425 23.1818 -5.30118 17.7147
3881 1 -8.20073 -6.31026 -15.9105 -8.20073 -6.31026 17.7468
13563 1 -0.0148837 -1.3525 -15.3195 -0.0148837 -1.3525 -15.3195
8203 1 -6.37696 -5.03388 -14.5943 -6.37696 -5.03388 19.0629
3832 1 -4.98221 -4.48836 -15.889 -4.98221 -4.48836 17.7682
11421 1 -1.88834 -5.39937 -15.6821 31.7689 -5.39937 17.9752
1806 1 -3.52845 -12.6545 -0.0760508 -3.52845 -12.6545 -0.0760508
5243 1 -2.01862 -16.1863 -6.74595 -2.01862 17.471 -6.74595
9864 1 -12.2988 -3.56631 -15.3591 -12.2988 -3.56631 -15.3591
8236 1 -0.172455 -12.7493 -10.4661 -0.172455 -12.7493 -10.4661
5616 1 -12.5995 -2.96665 -16.7617 -12.5995 -2.96665 -16.7617
4724 1 -9.58172 -3.7859 -15.6209 -9.58172 -3.7859 -15.6209
13918 1 -6.60285 -0.837818 -0.520697 -6.60285 -0.837818 -0.520697
3070 1 -8.44371 -4.06078 -16.3059 -8.44371 -4.06078 17.3514
1589 1 -7.47343 -2.0342 -14.7919 -7.47343 -2.0342 -14.7919
4597 1 -7.61664 -5.04267 -16.1279 -7.61664 -5.04267 -16.1279
4321 1 -5.9762 -3.77347 -16.149 -5.9762 -3.77347 -16.149
13836 1 -4.60338 -2.92709 -16.5505 29.0539 -2.92709 -16.5505
1690 1 -4.12509 -3.87601 -16.3893 -4.12509 -3.87601 -16.3893
4109 1 -0.851817 -4.19154 -16.1311 -0.851817 -4.19154 -16.1311
6916 1 -15.7605 -1.92089 -15.5495 17.8968 -1.92089 18.1077
6473 1 -16.1393 -0.618515 -16.0915 -16.1393 -0.618515 -16.0915
8760 1 -13.5204 -3.26108 -16.2753 20.1368 -3.26108 -16.2753
8128 1 -12.593 -1.38898 -16.1971 -12.593 -1.38898 17.4602
5623 1 -11.4032 -2.52332 -16.5873 -11.4032 -2.52332 -16.5873
2927 1 -8.12857 -2.87584 -16.2401 -8.12857 -36.5331 17.4172
4184 1 -13.4399 -16.0339 -2.85217 -13.4399 17.6234 -2.85217
9810 1 -13.4989 -0.688492 -6.11814 20.1583 -34.3457 -6.11814
6509 1 -5.77295 -2.42888 -16.4738 -5.77295 -2.42888 17.1835
7424 1 -3.46796 -2.52476 -14.2152 -3.46796 31.1325 19.442
5536 1 -2.09643 -0.391001 -14.5994 -2.09643 -0.391001 -14.5994
15631 1 -16.2945 -7.75412 -15.2727 17.3627 25.9031 18.3845
4974 1 -3.56009 -2.49367 -15.6975 -3.56009 -2.49367 -15.6975
3802 1 -1.90868 -3.79403 -14.9883 -1.90868 -3.79403 18.669
5383 1 -2.59452 -1.86331 -15.4091 -2.59452 -1.86331 -15.4091
1093 1 -1.7754 -3.24373 -16.5566 -1.7754 -3.24373 -16.5566
9635 1 -1.34639 -2.18939 -3.75851 -1.34639 -2.18939 -3.75851
2597 1 -13.7669 -2.64067 -15.3845 -13.7669 -2.64067 18.2728
7877 1 -14.4138 -1.33991 -14.7707 -14.4138 -1.33991 18.8866
2265 1 -10.0022 -16.1704 -10.3742 -10.0022 -16.1704 23.283
356 1 -13.5645 -0.885123 -16.0783 -13.5645 -0.885123 -16.0783
6644 1 -2.62756 -0.175356 -7.92765 -2.62756 -0.175356 -7.92765
6485 1 -10.8176 -1.07346 -15.7818 -10.8176 32.5838 17.8754
5951 1 -9.59816 -1.44133 -16.2774 -9.59816 -1.44133 -16.2774
4345 1 -6.74602 -1.90188 -16.0335 -6.74602 -1.90188 -16.0335
15013 1 -6.75122 -0.62458 -15.5168 -6.75122 -0.62458 18.1405
2505 1 -4.612 -1.50251 -16.0854 -4.612 -1.50251 17.5718
6646 1 -3.40624 -1.1135 -16.3524 -3.40624 -1.1135 17.3048
7075 1 -1.67333 -0.880362 -15.5967 -1.67333 -0.880362 18.0605
1770 1 -10.6496 -0.398398 -13.5757 -10.6496 -0.398398 -13.5757
10495 1 -0.432672 -8.51534 -10.4041 -0.432672 -8.51534 23.2531
13065 1 -16.4876 -15.1965 -14.9696 -16.4876 18.4607 -14.9696
15107 1 -16.0806 -15.5806 -13.6117 17.5767 -15.5806 20.0456
15029 1 -13.9498 -15.5291 -13.8952 -13.9498 -15.5291 19.762
13934 1 -12.7361 -15.3284 -15.8458 -12.7361 18.3288 -15.8458
4054 1 -9.99068 -16.2552 -14.1874 -9.99068 -16.2552 19.4698
462 1 -8.67528 -15.7899 -14.6337 -8.67528 -15.7899 -14.6337
10161 1 -6.58603 -15.0084 -15.9899 27.0712 -15.0084 -15.9899
2561 1 -5.99406 -15.3955 -14.909 -5.99406 -15.3955 18.7483
7538 1 -4.83065 -15.2105 -14.698 -4.83065 18.4467 18.9593
5700 1 -4.36047 -16.5165 -13.9348 -4.36047 17.1407 -13.9348
11385 1 -2.41607 -1.13146 -0.0121368 -2.41607 -1.13146 -0.0121368
9630 1 -3.36321 -15.9075 -14.6132 -3.36321 -15.9075 -14.6132
4680 1 -1.46486 -16.5064 -14.6079 -1.46486 17.1509 -14.6079
80 1 -11.6587 -15.9447 -5.00334 -11.6587 17.7126 -5.00334
2070 1 -16.3185 -13.7221 -2.50123 -16.3185 -13.7221 -2.50123
3423 1 -0.212428 -16.2765 -13.7565 -0.212428 -16.2765 19.9008
1108 1 -16.247 -14.2533 -15.9948 -16.247 -14.2533 -15.9948
7489 1 -8.18816 -0.462693 -16.2118 -8.18816 -0.462693 17.4455
2624 1 -14.2881 -14.6044 -13.1883 -14.2881 -14.6044 20.469
4219 1 -13.434 -13.7622 -13.7284 -13.434 19.8951 -13.7284
14931 1 -12.5176 -14.5392 -14.6245 21.1397 19.1181 19.0328
15758 1 -10.8149 -14.3427 -13.7333 22.8424 19.3145 -13.7333
1497 1 -7.54288 -15.3725 -14.0141 -7.54288 -15.3725 -14.0141
1743 1 -8.1272 -14.6165 -14.8202 -8.1272 -14.6165 -14.8202
1723 1 -6.07618 -13.9439 -15.7249 -6.07618 -13.9439 -15.7249
9383 1 -4.2143 -14.0853 -14.5477 -4.2143 -14.0853 -14.5477
3551 1 -2.16909 -14.9192 -14.0818 -2.16909 -14.9192 -14.0818
12351 1 -0.865137 -14.2947 -14.2892 32.7921 19.3626 -14.2892
11865 1 -16.1992 -13.0915 -14.1518 17.458 -13.0915 19.5054
1431 1 -15.0891 -13.8784 -14.8936 -15.0891 -13.8784 -14.8936
7042 1 -12.976 -12.8661 -13.4623 -12.976 20.7911 20.1949
7530 1 -11.6042 -13.6061 -14.781 -11.6042 -13.6061 18.8763
7456 1 -10.5777 -13.6952 -15.9706 -10.5777 19.962 -15.9706
5923 1 -11.0692 -12.4131 -14.2818 -11.0692 -12.4131 -14.2818
934 1 -9.39401 -13.779 -14.0449 -9.39401 -13.779 -14.0449
13813 1 -9.77245 -13.165 -15.1134 23.8848 20.4923 -15.1134
3127 1 -8.15177 -13.0483 -14.9896 -8.15177 -13.0483 18.6677
597 1 -6.68712 -12.9713 -13.9691 -40.3444 -12.9713 19.6882
4689 1 -4.75418 -13.1365 -14.8959 -4.75418 -13.1365 -14.8959
357 1 -4.12223 -12.6534 -13.5652 -4.12223 -12.6534 -13.5652
9183 1 -0.96858 -12.905 -14.8725 -0.96858 -12.905 -14.8725
5990 1 -3.23352 -13.4456 -14.6647 -3.23352 -13.4456 -14.6647
148 1 -0.316543 -13.6431 -15.3044 -0.316543 -13.6431 -15.3044
13271 1 -14.9907 -10.8272 -14.4515 18.6666 22.83 -14.4515
10172 1 -14.1344 -12.6165 -13.9972 19.5228 -12.6165 -13.9972
11856 1 -13.7298 -10.7088 -15.2658 19.9274 -10.7088 18.3915
4665 1 -12.1185 -12.6123 -14.2991 -12.1185 21.045 -14.2991
1435 1 -13.3824 -12.2992 -15.3338 -13.3824 -12.2992 -15.3338
2261 1 -12.3205 -11.8606 -15.339 -12.3205 -11.8606 18.3183
7848 1 -8.93667 -11.2576 -15.2002 -8.93667 22.3996 18.457
9435 1 -7.46266 -11.6437 -15.5626 26.1946 -11.6437 -15.5626
733 1 -6.76162 -10.406 -15.3257 -6.76162 -10.406 -15.3257
951 1 -7.03527 -11.0908 -14.4685 -7.03527 -11.0908 -14.4685
8173 1 -3.80821 -12.7967 -15.4529 -3.80821 20.8606 18.2043
8217 1 -0.566231 -12.4326 -15.988 -0.566231 -12.4326 -15.988
2548 1 -16.2359 -11.0568 -15.3212 -16.2359 -11.0568 18.336
8786 1 -16.4178 -9.87006 -14.5858 17.2394 -9.87006 -14.5858
5986 1 -14.1684 -9.4542 -15.4259 -14.1684 -9.4542 -15.4259
5503 1 -11.8878 -10.7799 -13.9009 -11.8878 22.8774 -13.9009
1761 1 -10.2774 -10.8031 -15.1172 -10.2774 -10.8031 -15.1172
1802 1 -9.17604 -10.0687 -15.1379 -9.17604 -10.0687 -15.1379
2214 1 -5.443 -9.97696 -15.4537 -5.443 -9.97696 18.2036
1524 1 -4.64191 -11.7273 -14.3741 -4.64191 -11.7273 -14.3741
1537 1 -4.41954 -9.91251 -14.0912 -4.41954 -9.91251 -14.0912
12016 1 -1.63156 -10.8494 -14.3783 -1.63156 -10.8494 19.279
995 1 -0.740195 -11.7557 -14.2901 -0.740195 -11.7557 -14.2901
8679 1 -0.18217 -11.0613 -4.27548 33.4751 -11.0613 -4.27548
12056 1 -15.3562 -10.2024 -15.5329 -15.3562 -10.2024 18.1243
6982 1 -12.9224 -8.72701 -14.0785 -12.9224 -8.72701 19.5787
15275 1 -12.4842 -9.63013 -15.175 21.173 -9.63013 18.4822
14478 1 -9.48283 -9.09597 -13.6836 24.1744 24.5613 -13.6836
480 1 -10.1804 -9.00253 -14.5717 -10.1804 -9.00253 -14.5717
11538 1 -8.17049 -9.55335 -14.4804 25.4868 -9.55335 19.1769
741 1 -9.16812 -8.62685 -14.9604 -9.16812 -8.62685 -14.9604
1293 1 -7.94434 -9.71197 -15.5604 -7.94434 -9.71197 -15.5604
4715 1 -7.80085 -8.65414 -15.1051 -7.80085 25.0031 -15.1051
11584 1 -6.20665 -8.03906 -14.1725 -6.20665 -8.03906 19.4847
10054 1 -4.24467 -9.41197 -15.4015 -4.24467 -9.41197 -15.4015
310 1 -3.9663 -10.7416 -15.1053 -3.9663 -10.7416 -15.1053
7430 1 -3.36503 -9.55171 -16.1825 -3.36503 -9.55171 17.4747
10259 1 -3.35858 -9.00889 -14.8695 -3.35858 -9.00889 -14.8695
8415 1 -2.28796 -9.47239 -15.6066 -2.28796 -9.47239 -15.6066
14489 1 -0.499585 -10.4419 -14.5691 -0.499585 23.2154 19.0882
4007 1 -16.6295 -8.71374 -14.1378 -16.6295 -8.71374 19.5195
6319 1 -15.5451 -6.81652 -14.9053 -15.5451 26.8407 18.7519
10724 1 -14.4825 -8.76549 -14.3628 -14.4825 -8.76549 19.2945
2010 1 -11.3106 -7.64807 -15.7913 -11.3106 -7.64807 -15.7913
6334 1 -14.0638 -7.00225 -14.9276 -14.0638 -7.00225 18.7296
1912 1 -13.1462 -7.46109 -15.0997 -13.1462 -7.46109 -15.0997
12522 1 -11.6692 -7.57803 -14.5277 -11.6692 -7.57803 -14.5277
192 1 -11.2676 -8.69985 -14.3725 -11.2676 -8.69985 -14.3725
4978 1 -10.1963 -7.12782 -14.529 -10.1963 -7.12782 -14.529
1843 1 -8.54384 -7.22157 -15.3045 -8.54384 -7.22157 -15.3045
5155 1 -6.52078 -6.98011 -13.3774 -6.52078 26.6771 -13.3774
13517 1 -5.32401 -7.35801 -14.7525 -5.32401 26.2992 -14.7525
2324 1 -1.05985 -7.50253 -15.1196 -1.05985 -7.50253 18.5377
7070 1 -1.05778 -9.19304 -16.2383 -1.05778 -9.19304 17.4189
12159 1 -16.0383 -7.40778 -13.6692 -16.0383 -7.40778 19.9881
10069 1 -15.9995 -2.35901 -16.712 17.6578 -2.35901 -16.712
3051 1 -13.6661 -5.69867 -15.2861 -13.6661 -5.69867 18.3711
3029 1 -15.5771 -6.08712 -14.1984 -15.5771 -6.08712 19.4588
2398 1 -13.7279 -4.6716 -14.3261 -13.7279 -4.6716 19.3312
2054 1 -10.7861 -5.51614 -14.8478 -10.7861 -5.51614 18.8095
8056 1 -8.48985 -6.00958 -14.5085 -8.48985 -6.00958 19.1487
12190 1 -8.00553 -7.40028 -16.1404 -8.00553 -7.40028 17.5169
2873 1 -7.35652 -5.84308 -15.3472 -7.35652 -5.84308 18.31
4172 1 -6.77853 -6.41822 -14.5657 -6.77853 27.239 -14.5657
5320 1 -4.92396 -6.14366 -14.7309 -4.92396 -6.14366 -14.7309
6214 1 -5.6756 -7.68648 -12.8247 -5.6756 -7.68648 20.8326
9002 1 -2.80574 -8.00941 -15.9679 -2.80574 -8.00941 -15.9679
15143 1 -3.24377 -5.52571 -14.1206 -3.24377 -5.52571 19.5367
7670 1 -15.853 -5.0543 -13.7707 -15.853 -5.0543 19.8865
9678 1 -14.7085 -5.38642 -15.0456 18.9488 -5.38642 -15.0456
8921 1 -12.9418 -4.62417 -15.205 -12.9418 -4.62417 -15.205
8524 1 -12.7912 -4.00178 -13.5785 20.8661 -4.00178 -13.5785
9266 1 -12.7092 -6.05786 -14.4169 20.948 -6.05786 -14.4169
16305 1 -9.66558 -4.80626 -15.1906 -9.66558 -4.80626 18.4667
14832 1 -11.0368 -6.58034 -15.0036 -11.0368 -6.58034 18.6537
1975 1 -11.569 -6.14879 -13.9674 -11.569 -6.14879 -13.9674
914 1 -8.13429 -4.85277 -14.8957 -8.13429 -4.85277 -14.8957
1408 1 -5.80423 -4.72417 -13.6006 -5.80423 -4.72417 -13.6006
696 1 -7.26696 -4.28549 -13.8609 -7.26696 -4.28549 -13.8609
12350 1 -4.0336 -5.14273 -15.9034 -4.0336 28.5145 -15.9034
16068 1 -3.72057 -7.06915 -15.1708 29.9367 -7.06915 -15.1708
573 1 -3.72373 -4.84662 -14.8675 -3.72373 -4.84662 -14.8675
11717 1 -1.18284 -5.9283 -14.5935 -1.18284 -5.9283 -14.5935
10574 1 -2.24155 -4.99724 -14.7133 -2.24155 -4.99724 18.9439
6304 1 -0.239898 -5.27701 -14.3546 -0.239898 28.3802 19.3026
4178 1 -16.1517 -4.55244 -14.7267 -16.1517 -4.55244 18.9306
4005 1 -15.3667 -4.10969 -15.7951 -15.3667 -4.10969 17.8622
15893 1 -13.9122 -3.74244 -15.0685 -13.9122 -3.74244 18.5888
5178 1 -11.2901 -3.12959 -15.4262 -11.2901 -3.12959 -15.4262
13904 1 -11.8422 -4.66613 -14.2623 -11.8422 -4.66613 -14.2623
8744 1 -10.6264 -4.2806 -15.0109 23.0308 -4.2806 -15.0109
15923 1 -8.8537 -4.10339 -14.9341 24.8036 -4.10339 18.7231
2264 1 -8.97458 -2.6396 -15.1113 -8.97458 -2.6396 18.546
9756 1 -8.06789 -3.26773 -14.8605 25.5894 -36.925 -14.8605
10958 1 -6.96809 -3.59704 -14.602 -6.96809 -3.59704 19.0552
7703 1 -7.07755 -3.47665 -15.7424 -7.07755 -3.47665 17.9149
5308 1 -5.28142 -3.85382 -14.8876 -5.28142 -3.85382 -14.8876
1648 1 -4.20896 -3.93867 -14.689 -4.20896 -3.93867 -14.689
13501 1 -3.22661 -3.69818 -14.8954 -3.22661 -3.69818 -14.8954
160 1 -2.35543 -2.0611 -14.0848 -2.35543 -2.0611 -14.0848
2049 1 -0.78388 -4.99965 -15.2371 -0.78388 -4.99965 18.4201
9060 1 -16.0984 -2.40621 -14.1369 17.5589 -2.40621 -14.1369
4094 1 -14.9643 -3.01946 -15.0568 -14.9643 -3.01946 -15.0568
266 1 -15.5614 -3.18435 -12.6921 -15.5614 -3.18435 -12.6921
4082 1 -13.2722 -2.55142 -14.2992 -13.2722 -2.55142 -14.2992
9221 1 -10.4294 -2.44926 -15.118 -10.4294 -2.44926 -15.118
12555 1 -10.9698 -0.183937 -14.6512 22.6875 -0.183937 -14.6512
13282 1 -8.91988 -1.32767 -15.4505 24.7374 -1.32767 -15.4505
6725 1 -4.92047 -2.47944 -15.3275 -4.92047 -2.47944 18.3297
7325 1 -5.37624 -1.46261 -14.4185 -5.37624 -1.46261 19.2387
4205 1 -4.58756 -2.888 -14.0652 -4.58756 30.7693 -14.0652
5765 1 -0.247271 -2.88971 -15.5717 -0.247271 -2.88971 -15.5717
13191 1 -0.174824 -3.62365 -14.733 -0.174824 -3.62365 18.9242
4875 1 -16.225 -0.457999 -13.6308 -16.225 -0.457999 -13.6308
8155 1 -15.469 -1.44269 -13.7512 -15.469 -1.44269 19.906
7125 1 -13.4348 -1.4955 -14.198 -13.4348 -1.4955 19.4593
10902 1 -16.1703 -3.53495 -9.3232 17.487 -3.53495 24.334
2691 1 -11.9318 -1.98892 -15.0613 -11.9318 -35.6462 18.596
22 1 -10.0538 -1.14749 -14.8632 -10.0538 -1.14749 -14.8632
9395 1 -7.67906 -1.16341 -14.1655 25.9782 -1.16341 -14.1655
11530 1 -2.89782 -3.5486 -16.1507 -2.89782 -3.5486 17.5065
4470 1 -5.7149 -0.914521 -16.315 -5.7149 -0.914521 -16.315
13627 1 -6.52747 -2.61021 -14.9579 -6.52747 -2.61021 -14.9579
10119 1 -16.7334 -0.0948802 -5.70831 16.9239 -0.0948802 -5.70831
324 1 -3.18775 -0.836872 -14.3363 -3.18775 -0.836872 -14.3363
46 1 -1.14448 -2.31457 -15.6623 -1.14448 -2.31457 -15.6623
11482 1 -16.285 -2.68434 -0.129347 17.3722 -2.68434 33.5279
8046 1 -14.5263 -16.1878 -12.2487 -14.5263 17.4694 21.4085
12244 1 -4.33828 -10.0354 -16.7781 29.319 -10.0354 16.8791
2851 1 -11.3334 -16.1473 -14.8414 -11.3334 -16.1473 18.8159
930 1 -11.9329 -15.1999 -14.0684 -11.9329 -15.1999 -14.0684
769 1 -16.4225 -13.4895 -4.83211 -16.4225 -13.4895 -4.83211
1148 1 -10.4855 -11.5926 -0.431657 -44.1427 -11.5926 -0.431657
16382 1 -7.28412 -16.3506 -13.8938 -7.28412 17.3066 -13.8938
13962 1 -6.01391 -15.4525 -13.0863 27.6433 -15.4525 -13.0863
7646 1 -8.15636 -16.5029 -13.189 -8.15636 17.1544 20.4682
773 1 -4.58202 -15.1319 -13.4954 -4.58202 -15.1319 -13.4954
6349 1 -3.78337 -16.0769 -12.124 -3.78337 17.5804 -12.124
14054 1 -3.02329 -15.7389 -12.8356 -3.02329 17.9183 -12.8356
9433 1 -3.19552 -14.4051 -12.2973 -3.19552 -14.4051 -12.2973
7370 1 -11.5815 -0.218593 -15.7299 -11.5815 -0.218593 17.9274
1814 1 -1.68013 -15.0158 -12.8208 -1.68013 -15.0158 -12.8208
3649 1 -15.9438 -14.5073 -14.0337 -15.9438 -14.5073 19.6235
8100 1 -14.1156 -14.4514 -11.8805 -47.7729 19.2059 21.7767
2429 1 -15.1343 -15.1714 -12.1447 -15.1343 -15.1714 21.5125
5639 1 -12.954 -15.6728 -13.3759 -12.954 17.9844 -13.3759
828 1 -12.525 -13.7979 -13.1004 -12.525 -13.7979 -13.1004
124 1 -10.1707 -14.0387 -12.7466 -10.1707 -14.0387 -12.7466
523 1 -8.97964 -15.1407 -13.8487 -8.97964 -15.1407 -13.8487
5172 1 -8.10064 -15.204 -12.8327 -8.10064 -15.204 -12.8327
13952 1 -8.19579 -14.246 -13.7178 -8.19579 19.4113 -13.7178
1925 1 -3.47254 -14.9399 -13.675 -3.47254 -14.9399 -13.675
11648 1 -6.04357 -13.9793 -14.201 -6.04357 -13.9793 19.4563
6218 1 -0.359538 -15.1549 -12.8363 -0.359538 18.5024 20.821
12935 1 -16.1606 -13.7366 -12.9042 17.4966 -13.7366 -12.9042
767 1 -14.8819 -13.7978 -13.1934 -14.8819 -13.7978 -13.1934
1290 1 -14.0682 -11.3743 -13.3934 -14.0682 -11.3743 -13.3934
13957 1 -11.6545 -12.7433 -13.0938 22.0028 20.9139 -13.0938
1251 1 -10.139 -12.5857 -13.5288 -10.139 21.0716 -13.5288
10676 1 -7.55709 -11.4271 -13.6062 -7.55709 -11.4271 -13.6062
4147 1 -7.73617 -13.1433 -13.729 -7.73617 20.5139 -13.729
3131 1 -6.73498 -12.2308 -12.7285 -6.73498 -12.2308 -12.7285
8402 1 -5.1524 -13.683 -13.1734 -5.1524 -13.683 -13.1734
1016 1 -5.8106 -12.3278 -13.6621 -5.8106 -12.3278 -13.6621
2126 1 -4.2802 -14.3734 -12.8335 -4.2802 -14.3734 20.8237
4720 1 -2.6124 -13.6995 -13.4179 -2.6124 19.9578 -13.4179
2710 1 -2.56163 -12.3531 -12.9256 -2.56163 -12.3531 20.7317
13584 1 -1.14733 -12.7879 -13.2608 -1.14733 20.8693 -13.2608
11606 1 -16.6815 -12.0514 -13.8169 16.9757 -12.0514 -13.8169
14882 1 -15.4964 -12.5975 -13.458 18.1608 21.0598 20.1992
6302 1 -14.7438 -10.6629 -12.9964 -14.7438 22.9943 -12.9964
1331 1 -13.1967 -11.237 -14.163 -13.1967 -11.237 -14.163
336 1 -10.909 -11.4546 -13.4494 -10.909 -11.4546 -13.4494
4514 1 -9.55266 -12.4835 -12.4521 -9.55266 21.1737 -12.4521
11712 1 -8.65698 -12.1111 -14.0798 25.0003 -12.1111 19.5775
2488 1 -8.04582 -10.6934 -14.7053 -8.04582 -10.6934 18.952
8036 1 -7.72582 -9.92629 -13.0951 -7.72582 23.731 20.5622
4807 1 -6.34807 -10.8798 -12.315 -6.34807 22.7775 -12.315
1521 1 -3.09413 -12.1627 -14.3985 -3.09413 -12.1627 -14.3985
3618 1 -3.29397 -10.7649 -14.2567 -3.29397 -10.7649 19.4005
10961 1 -1.9972 -12.3345 -14.0755 -1.9972 -12.3345 19.5818
2687 1 -1.49848 -11.0316 -12.9094 -35.1557 -11.0316 -12.9094
620 1 -1.61391 -16.479 -2.92022 -1.61391 -16.479 -2.92022
15773 1 -1.16733 -0.693167 -2.08011 -1.16733 32.9641 -2.08011
2545 1 -15.656 -9.59547 -11.9168 -15.656 -9.59547 21.7404
9577 1 -14.1872 -9.67977 -14.0568 19.47 -9.67977 -14.0568
12587 1 -13.7625 -10.2402 -13.2394 19.8947 -10.2402 -13.2394
5720 1 -12.717 -9.68918 -13.3796 -12.717 23.9681 -13.3796
9845 1 -10.1075 -11.4573 -12.3204 23.5498 -11.4573 -12.3204
8057 1 -10.2656 -10.6865 -13.8597 -10.2656 -10.6865 -13.8597
8850 1 -9.13739 -10.6585 -13.9772 24.5199 -10.6585 -13.9772
1760 1 -8.62179 -10.7516 -12.3858 -8.62179 -10.7516 -12.3858
8083 1 -5.82646 -10.3328 -14.121 -5.82646 -10.3328 19.5363
12623 1 -4.27831 -11.1898 -12.6971 29.3789 22.4675 -12.6971
6380 1 -3.54166 -10.1612 -12.8455 -3.54166 -10.1612 -12.8455
4796 1 -1.5672 -9.47668 -14.6211 -1.5672 -9.47668 -14.6211
6994 1 -2.19398 -10.2611 -13.2239 -2.19398 -10.2611 20.4333
8804 1 -3.33786 -9.10719 -13.7396 -3.33786 -9.10719 -13.7396
7963 1 -0.438383 -8.23061 -16.7626 -0.438383 -8.23061 16.8946
749 1 -16.3114 -9.45191 -12.9147 -16.3114 -9.45191 -12.9147
3528 1 -15.0791 -9.05279 -12.9245 -15.0791 -9.05279 -12.9245
335 1 -14.8112 -8.46044 -11.4158 -14.8112 -8.46044 -11.4158
14935 1 -11.0796 -9.38383 -13.5853 -11.0796 -9.38383 20.072
899 1 -8.51015 -9.62538 -12.5075 -8.51015 -9.62538 -12.5075
3405 1 -8.46637 -8.6911 -13.1551 -8.46637 -8.6911 20.5021
8172 1 -6.23746 -9.09499 -12.8204 -6.23746 -9.09499 -12.8204
3074 1 -7.12239 -10.1255 -14.2196 -7.12239 -10.1255 19.4376
5290 1 -4.96153 -8.69267 -14.2352 -4.96153 -8.69267 -14.2352
4318 1 -4.01977 -8.44228 -13.2012 -4.01977 25.215 -13.2012
15516 1 -2.25383 -9.17339 -12.6052 31.4034 -9.17339 21.0521
9375 1 -14.4248 -14.3294 -0.0221255 19.2324 -14.3294 -0.0221255
9339 1 -15.0621 -7.826 -14.1481 18.5951 -7.826 -14.1481
8500 1 -15.0574 -8.06428 -12.3782 18.5998 -8.06428 -12.3782
8224 1 -13.5572 -7.97297 -12.7689 20.1 -41.6302 -12.7689
10037 1 -11.9861 -8.96557 -12.6786 -11.9861 -8.96557 -12.6786
740 1 -12.4472 -7.9009 -13.4442 -12.4472 -7.9009 -13.4442
1090 1 -10.964 -7.55202 -13.5909 -10.964 -7.55202 -13.5909
12169 1 -8.84236 -8.01635 -14.1807 -8.84236 -8.01635 -14.1807
3523 1 -9.67493 -7.65107 -12.7785 -9.67493 -7.65107 20.8788
5115 1 -7.97952 -6.64889 -13.6329 -7.97952 -6.64889 -13.6329
10693 1 -7.51134 -7.84675 -12.9108 26.1459 -7.84675 20.7465
751 1 -6.43377 -9.2954 -14.1341 -6.43377 -9.2954 -14.1341
9950 1 -4.70186 -7.55987 -13.6989 -4.70186 -7.55987 -13.6989
13318 1 -3.02155 -7.55987 -12.5045 -3.02155 -7.55987 -12.5045
10014 1 -4.10937 -8.3136 -15.2073 -4.10937 -8.3136 -15.2073
3004 1 -2.22382 -8.49791 -13.6842 -2.22382 -8.49791 19.9731
797 1 -0.496616 -7.36563 -13.5005 -0.496616 -7.36563 -13.5005
4581 1 -0.543683 -8.6896 -14.5002 -0.543683 -8.6896 -14.5002
13161 1 -1.45547 -7.42782 -13.1044 -1.45547 -7.42782 -13.1044
15658 1 -15.3081 -5.53257 -12.2885 18.3491 -5.53257 -12.2885
9133 1 -14.4508 -6.2337 -14.0623 19.2064 -6.2337 -14.0623
8062 1 -13.1146 -6.79816 -13.0932 -13.1146 -6.79816 20.564
2611 1 -12.0994 -6.70149 -13.102 -12.0994 -6.70149 20.5552
2303 1 -12.5774 -8.22977 -11.4945 -12.5774 -8.22977 22.1627
7227 1 -10.6359 -6.61238 -12.8769 -10.6359 -6.61238 -12.8769
2801 1 -9.43748 -6.24333 -14.063 -9.43748 -6.24333 19.5942
3889 1 -7.18031 -5.66686 -13.2433 -7.18031 -5.66686 -13.2433
15708 1 -5.57676 -6.56265 -13.7934 -5.57676 -6.56265 19.8639
1887 1 -3.6395 -6.59806 -13.376 -3.6395 -6.59806 -13.376
2117 1 -4.84191 -5.59968 -13.4704 -4.84191 -5.59968 -13.4704
4566 1 -2.30752 -7.21347 -13.9457 -2.30752 26.4438 -13.9457
15509 1 -1.21324 -6.30117 -13.5296 -1.21324 -6.30117 20.1276
3468 1 -16.8003 -5.70954 -12.5967 -16.8003 -5.70954 21.0606
11013 1 -14.7286 -5.14865 -13.2203 18.9287 -5.14865 20.4369
8475 1 -11.3177 -5.02267 -12.9616 22.3396 -5.02267 -12.9616
6501 1 -10.75 -4.05798 -13.5623 -10.75 -4.05798 20.095
1763 1 -10.1139 -5.6832 -12.7105 -10.1139 -5.6832 -12.7105
13950 1 -9.35769 -5.19313 -13.7544 -9.35769 -5.19313 -13.7544
3005 1 -8.16396 -4.45045 -12.9171 -8.16396 -4.45045 20.7402
621 1 -6.48508 -4.79519 -12.4686 -6.48508 -4.79519 -12.4686
9368 1 -5.52281 -6.04326 -12.4963 -5.52281 -6.04326 -12.4963
1590 1 -5.18714 -5.06991 -14.9965 -5.18714 -5.06991 -14.9965
2248 1 -3.25745 -5.65999 -11.919 -3.25745 -5.65999 -11.919
1702 1 -2.14669 -5.72002 -13.2958 -2.14669 -5.72002 -13.2958
5538 1 -1.61343 -4.96792 -11.763 -1.61343 -4.96792 -11.763
1798 1 -1.1388 -4.32405 -13.9657 -1.1388 -4.32405 -13.9657
12427 1 -16.2526 -4.10082 -13.6051 17.4047 -4.10082 -13.6051
4903 1 -15.4238 -4.32253 -12.4004 -15.4238 -4.32253 -12.4004
10751 1 -14.5979 -3.99214 -13.746 19.0594 -3.99214 19.9113
4452 1 -12.196 -2.69851 -13.6016 -12.196 -2.69851 -13.6016
9429 1 -11.6207 -3.39388 -12.6326 22.0365 -37.0511 -12.6326
5089 1 -8.8679 -4.08807 -12.211 -8.8679 -4.08807 -12.211
570 1 -7.7611 -2.98579 -13.6058 -7.7611 -2.98579 -13.6058
11445 1 -4.6059 -4.05332 -13.7213 29.0513 -4.05332 19.9359
5563 1 -3.41911 -4.73318 -13.3057 -3.41911 -4.73318 -13.3057
5248 1 -2.07336 -3.86103 -13.5864 -2.07336 -3.86103 -13.5864
13896 1 -3.29483 -3.3437 -13.0865 -3.29483 -3.3437 -13.0865
4691 1 -1.1293 -2.589 -14.209 -1.1293 -2.589 -14.209
5037 1 -4.4182 -16.4412 -1.44882 -4.4182 17.2161 -1.44882
13163 1 -16.6572 -3.05321 -13.0683 17 -3.05321 -13.0683
3319 1 -15.3063 -1.4722 -12.4905 -15.3063 -1.4722 21.1668
1023 1 -14.522 -2.26848 -13.5962 -14.522 -2.26848 -13.5962
15602 1 -11.1019 -2.79099 -14.3406 22.5554 -2.79099 19.3166
1503 1 -12.2009 -1.01182 -13.8876 -12.2009 -34.6691 -13.8876
8097 1 -9.88433 -4.48374 -13.0505 -9.88433 -4.48374 20.6068
13678 1 -10.1697 -1.80121 -13.905 -10.1697 -1.80121 -13.905
9303 1 -8.9257 -3.53158 -13.7558 24.7315 -3.53158 -13.7558
11563 1 -9.42144 -2.10618 -12.7122 -9.42144 -2.10618 20.945
13603 1 -8.71186 -1.72701 -14.0429 -8.71186 -1.72701 -14.0429
6778 1 -6.66224 -2.64645 -13.2327 -6.66224 -2.64645 20.4246
5052 1 -5.85687 -3.37697 -13.9317 -5.85687 -3.37697 -13.9317
11792 1 -3.4968 -2.10671 -13.2499 -3.4968 -2.10671 20.4074
3263 1 -4.93289 -1.96309 -12.941 -4.93289 -1.96309 20.7163
676 1 -0.88683 -1.52408 -14.4218 -0.88683 -1.52408 -14.4218
6418 1 -3.10434 -0.720571 -12.9924 -3.10434 -0.720571 -12.9924