ITEM: TIMESTEP
3500
ITEM: NUMBER OF ATOMS
16384
ITEM: BOX BOUNDS pp pp pp
-1.6828627036276380e+01 1.6828627036276380e+01
-1.6828627036276380e+01 1.6828627036276380e+01
-1.6828627036276380e+01 1.6828627036276380e+01
ITEM: ATOMS id type x y z xu yu zu
671 1 -14.3624 -15.88 -15.961 -14.3624 -15.88 -15.961
130 1 -15.4258 -16.1874 -16.6768 -15.4258 -16.1874 -16.6768
2851 1 -13.1489 -15.9143 -15.1927 -13.1489 -15.9143 18.4646
554 1 -13.5001 -15.4632 -16.7667 -13.5001 -15.4632 -16.7667
7992 1 -0.190772 -5.92553 -16.5391 -0.190772 -5.92553 -16.5391
7456 1 -11.2126 -16.3421 -15.4378 -11.2126 17.3152 -15.4378
7130 1 -8.08997 -15.3465 -16.6946 -8.08997 18.3108 16.9626
7332 1 -7.99123 -16.1341 -15.7355 -7.99123 17.5231 17.9218
7035 1 -3.52827 -16.6731 -16.459 -3.52827 16.9841 17.1983
12571 1 -1.71523 -16.0773 -16.3362 -1.71523 17.58 -16.3362
146 1 -16.5074 -15.6416 -16.1706 -16.5074 -15.6416 -16.1706
11649 1 -16.4796 -14.3713 -15.5016 17.1777 -14.3713 18.1557
469 1 -15.5833 -14.0194 -16.1812 -15.5833 -14.0194 -16.1812
15107 1 -14.0129 -14.7171 -15.6514 19.6444 -14.7171 18.0059
8100 1 -12.2765 -14.1352 -15.8525 -45.9337 19.5221 17.8047
3063 1 -11.4366 -15.2906 -15.7256 -11.4366 -15.2906 17.9316
4514 1 -9.2988 -15.1764 -15.9604 -9.2988 18.4808 -15.9604
9435 1 -7.69525 -14.8311 -15.5996 25.962 -14.8311 -15.5996
1535 1 -8.41525 -13.8324 -16.0265 -8.41525 -13.8324 17.6307
3127 1 -6.54179 -13.7159 -15.4738 -6.54179 -13.7159 18.1834
7538 1 -5.76148 -15.4513 -15.6691 -5.76148 18.206 17.9881
16382 1 -5.58094 -14.4458 -14.7697 -5.58094 19.2115 -14.7697
2471 1 -5.04312 -14.623 -16.4239 -5.04312 -14.623 17.2334
9565 1 -7.39862 -16.7509 -7.05088 -7.39862 -16.7509 -7.05088
12146 1 -3.89303 -13.908 -16.2371 -3.89303 -13.908 17.4202
8260 1 -2.48336 -14.8932 -15.4949 -2.48336 -14.8932 -15.4949
15279 1 -0.750735 -14.8329 -15.968 -0.750735 18.8244 17.6893
2051 1 -14.7314 -13.2366 -16.7841 -14.7314 -13.2366 16.8731
9407 1 -13.7389 -13.7859 -16.4955 19.9184 -13.7859 -16.4955
6579 1 -12.833 -13.2242 -16.0468 -12.833 20.433 17.6104
1419 1 -6.17688 -16.7497 -7.41421 -6.17688 -16.7497 -7.41421
7540 1 -2.86716 -16.5377 -2.10093 -2.86716 17.1196 -2.10093
11190 1 -9.66938 -13.3654 -15.8144 -9.66938 -13.3654 17.8429
13447 1 -5.895 -13.0899 -16.4859 27.7623 20.5674 -16.4859
357 1 -5.18681 -13.1385 -15.5797 -5.18681 -13.1385 -15.5797
6861 1 -1.26511 -16.8058 -0.120363 -1.26511 16.8514 -0.120363
8255 1 -3.48882 -12.986 -15.6168 -3.48882 -12.986 -15.6168
6688 1 -0.279324 -5.06761 -3.04658 -0.279324 -5.06761 -3.04658
9099 1 -2.49536 -13.5554 -15.9482 -2.49536 -13.5554 -15.9482
8540 1 -0.368663 -13.6557 -15.6883 -0.368663 -13.6557 -15.6883
8878 1 -0.914222 -13.0569 -16.3152 -0.914222 -13.0569 17.3421
12696 1 -15.929 -11.1079 -15.896 17.7283 22.5494 -15.896
3649 1 -13.9918 -10.9036 -15.8522 -13.9918 -10.9036 17.805
1978 1 -14.0472 -12.3675 -15.5492 -14.0472 -12.3675 -15.5492
4219 1 -12.6734 -11.876 -15.9474 -12.6734 21.7812 -15.9474
1251 1 -10.479 -12.6648 -15.4622 -10.479 20.9925 -15.4622
4859 1 -8.78402 -11.7667 -16.8406 -8.78402 21.8906 -16.8406
9137 1 -8.35386 -12.3677 -15.7336 -8.35386 -12.3677 -15.7336
2426 1 -6.82657 -12.2484 -15.9893 -6.82657 -12.2484 17.6679
12433 1 -6.25769 -16.3171 -2.74644 -6.25769 17.3402 -2.74644
642 1 -1.30464 -11.5804 -16.7391 -1.30464 -11.5804 -16.7391
12243 1 -0.0702686 -11.8421 -16.5848 -0.0702686 -11.8421 17.0724
2548 1 -14.5451 -10.6535 -14.9553 -14.5451 -10.6535 18.7019
16141 1 -14.9923 -10.2069 -16.3536 18.6649 -10.2069 17.3037
13271 1 -13.3582 -10.056 -14.7895 20.2991 23.6012 -14.7895
179 1 -13.3638 -10.5857 -16.6749 -13.3638 -10.5857 -16.6749
4235 1 -10.0371 -11.3021 -16.351 -10.0371 22.3551 17.3062
503 1 -9.48991 -9.79946 -15.893 -9.48991 -9.79946 -15.893
6523 1 -8.95674 -10.9775 -15.9942 -8.95674 22.6798 17.6631
1426 1 -7.18669 -11.1891 -15.8368 -7.18669 -11.1891 -15.8368
6529 1 -7.44752 -9.78756 -16.0583 -7.44752 -9.78756 17.599
1537 1 -6.17752 -10.5735 -16.0276 -6.17752 -10.5735 -16.0276
8402 1 -5.02777 -11.066 -15.4362 -5.02777 -11.066 -15.4362
6944 1 -3.21183 -11.6384 -15.654 -3.21183 22.0189 18.0033
11149 1 -3.35562 -9.82947 -16.1499 -3.35562 -9.82947 17.5074
12244 1 -1.86694 -9.40314 -16.4003 31.7903 -9.40314 17.257
6428 1 -1.35071 -10.8056 -15.9501 -1.35071 22.8516 17.7071
394 1 -16.071 -9.77331 -15.584 -16.071 -9.77331 -15.584
6489 1 -0.0761997 -12.0187 -6.3362 -0.0761997 21.6385 -6.3362
13617 1 -11.9733 -9.01747 -16.5096 -11.9733 24.6398 -16.5096
2341 1 -10.6756 -10.0353 -15.7601 -10.6756 -10.0353 17.8972
1438 1 -9.79116 -8.04094 -15.3923 -9.79116 -8.04094 -15.3923
7530 1 -8.55625 -9.45789 -14.8984 -8.55625 -9.45789 18.7589
10949 1 -8.06819 -9.01822 -16.833 25.5891 -9.01822 16.8242
1305 1 -6.54696 -9.14498 -15.0751 -6.54696 -9.14498 -15.0751
9790 1 -6.3473 -9.06519 -16.7617 -6.3473 -9.06519 -16.7617
10054 1 -5.20969 -9.43141 -16.086 -5.20969 -9.43141 -16.086
3889 1 -2.93964 -8.77917 -16.2614 -2.93964 -8.77917 -16.2614
9190 1 -16.0284 -8.50308 -16.6349 17.6289 -8.50308 17.0223
12192 1 -14.9213 -7.92449 -16.1765 18.736 -7.92449 17.4808
14935 1 -13.523 -7.24707 -16.3076 -13.523 -7.24707 17.3497
335 1 -14.4269 -7.92155 -15.2115 -14.4269 -7.92155 -15.2115
5703 1 -14.0305 -0.696629 -8.49844 -14.0305 -0.696629 -8.49844
5025 1 -12.6353 -8.32881 -15.8204 -12.6353 -8.32881 -15.8204
1639 1 -9.7671 -7.15012 -16.1127 -9.7671 -7.15012 -16.1127
4034 1 -10.9345 -8.6956 -16.7933 -10.9345 -8.6956 16.864
938 1 -13.2409 -0.135592 -0.891178 -13.2409 -0.135592 -0.891178
12503 1 -8.3382 -7.91746 -16.078 25.3191 25.7398 -16.078
1760 1 -7.38754 -8.36907 -15.7591 -7.38754 -8.36907 -15.7591
4715 1 -6.05605 -7.54088 -15.5217 -6.05605 26.1164 -15.5217
8503 1 -5.05328 -7.73076 -16.0445 -5.05328 -7.73076 -16.0445
12289 1 -1.90271 -7.48668 -15.6941 -1.90271 26.1706 17.9632
11078 1 -2.89492 -7.53682 -16.5579 -2.89492 -7.53682 17.0993
9002 1 -0.858772 -8.26496 -16.4036 -0.858772 -8.26496 -16.4036
1256 1 -0.349323 -7.46058 -15.4929 -0.349323 -7.46058 -15.4929
1798 1 -1.43194 -6.20944 -16.4276 -1.43194 -6.20944 -16.4276
7181 1 -15.598 -0.642863 -16.2823 -15.598 -0.642863 -16.2823
7964 1 -16.054 -6.71588 -16.5781 -16.054 26.9414 17.0792
2623 1 -14.8466 -6.47911 -15.8746 -14.8466 -6.47911 17.7826
14402 1 -12.7865 -5.96551 -15.8396 20.8707 -5.96551 17.8176
6982 1 -13.3623 -7.63565 -14.5347 -13.3623 -7.63565 19.1225
871 1 -0.0712115 -15.5488 -0.114894 -0.0712115 -15.5488 -0.114894
13798 1 -11.1674 -6.55954 -15.2055 22.4898 27.0977 -15.2055
2611 1 -10.3184 -5.85528 -15.8948 -10.3184 -5.85528 17.7625
4653 1 -9.53845 -0.582772 -6.47415 -9.53845 -0.582772 -6.47415
2873 1 -8.56916 -6.24959 -15.7895 -8.56916 -6.24959 17.8677
10609 1 -16.1042 -0.577833 -1.69737 17.5531 -0.577833 -1.69737
8265 1 -7.63379 -7.12221 -16.3446 -7.63379 -7.12221 -16.3446
1481 1 -5.50067 -6.86504 -16.3067 -5.50067 -6.86504 -16.3067
81 1 -4.05532 -5.73603 -16.1966 -4.05532 -5.73603 -16.1966
654 1 -2.66555 -0.0085564 -11.2448 -2.66555 -0.0085564 -11.2448
1625 1 -1.96819 -5.80679 -14.963 -1.96819 -5.80679 -14.963
1884 1 -0.359408 -5.79106 -15.045 -0.359408 -5.79106 -15.045
14832 1 -7.3117 -4.53897 -16.47 -7.3117 -4.53897 17.1873
10238 1 -16.8078 -0.354795 -16.4034 16.8494 -0.354795 -16.4034
1953 1 -15.5396 -5.43799 -15.8256 -15.5396 -5.43799 -15.8256
3029 1 -13.0872 -4.58817 -15.988 -13.0872 -4.58817 17.6693
11112 1 -14.0947 -5.63316 -15.7434 19.5625 -5.63316 17.9138
1171 1 -9.37477 -16.6892 -13.7923 -43.032 -16.6892 -13.7923
5235 1 -10.9251 -5.01528 -16.4876 -10.9251 -5.01528 -16.4876
7227 1 -9.31167 -5.23774 -15.8259 -9.31167 -5.23774 -15.8259
8056 1 -8.01916 -4.97941 -15.4871 -8.01916 -4.97941 18.1702
1094 1 -6.50201 -5.42616 -16.2287 -6.50201 -5.42616 -16.2287
2185 1 -5.32767 -5.75865 -15.062 -5.32767 -5.75865 18.5952
3424 1 -5.16948 -4.21621 -16.1763 -5.16948 -4.21621 17.4809
5320 1 -5.13454 -5.56456 -16.4822 -5.13454 -5.56456 -16.4822
13292 1 -2.35993 -4.4804 -16.439 -2.35993 -4.4804 -16.439
1169 1 -0.936717 -4.54676 -16.383 -0.936717 -4.54676 -16.383
10751 1 -15.0479 -2.77966 -15.7839 18.6094 -2.77966 17.8733
952 1 -4.84017 -0.149536 -5.70758 -4.84017 -0.149536 -5.70758
6501 1 -14.7572 -3.95332 -16.7144 -14.7572 -3.95332 16.9429
3468 1 -13.2238 -3.00717 -16.1887 -13.2238 -3.00717 17.4685
9678 1 -12.2589 -3.5541 -16.4641 21.3984 -3.5541 -16.4641
4724 1 -10.6593 -3.8622 -16.0018 -10.6593 -3.8622 -16.0018
4597 1 -8.04494 -3.85424 -15.1728 -8.04494 -3.85424 -15.1728
10 1 -7.52832 -3.24711 -16.3564 -7.52832 -3.24711 -16.3564
5248 1 -6.24666 -3.10778 -16.588 -6.24666 -3.10778 -16.588
6214 1 -3.52568 -4.43004 -16.036 -3.52568 -4.43004 17.6212
2049 1 -2.59621 -3.15996 -16.1038 -2.59621 -3.15996 17.5535
13191 1 -1.25456 -3.15295 -15.8737 -1.25456 -3.15295 17.7836
829 1 -16.2685 -2.70161 -16.6923 -16.2685 -2.70161 -16.6923
4094 1 -15.2561 -1.79237 -15.6298 -15.2561 -1.79237 -15.6298
4973 1 -13.7827 -2.11654 -15.7274 -13.7827 -2.11654 -15.7274
2303 1 -11.7948 -2.52763 -16.5225 -11.7948 -2.52763 17.1348
5419 1 -11.2924 -1.50889 -16.1305 -11.2924 -1.50889 -16.1305
13690 1 -10.7486 -2.84562 -15.8783 22.9087 -2.84562 -15.8783
11507 1 -9.21632 -3.59115 -16.1439 24.4409 -3.59115 17.5133
16122 1 -8.70275 -2.43355 -16.0604 -8.70275 -2.43355 17.5968
2110 1 -7.64225 -1.58924 -16.7119 -7.64225 -1.58924 16.9454
160 1 -6.13019 -1.69673 -16.3266 -6.13019 -1.69673 -16.3266
1690 1 -4.80308 -2.9324 -15.6713 -4.80308 -2.9324 -15.6713
983 1 -15.3388 0.00268604 -10.9057 -15.3388 0.00268604 -10.9057
5385 1 -4.11325 -1.83 -16.4903 -4.11325 -1.83 -16.4903
2142 1 -0.720233 -0.882886 -15.6095 -0.720233 -0.882886 18.0478
5941 1 -1.89673 -1.96076 -16.0459 -1.89673 -1.96076 -16.0459
1119 1 -0.291631 -1.47335 -16.6995 -0.291631 -1.47335 -16.6995
9060 1 -15.977 -0.927316 -15.1546 17.6803 -0.927316 -15.1546
2612 1 -0.968561 -9.21728 0.000934054 -0.968561 -9.21728 0.000934054
8128 1 -14.3972 -1.34143 -16.7995 -14.3972 -1.34143 16.8578
6485 1 -10.6776 -0.486881 -16.1043 -10.6776 33.1704 17.553
12420 1 -9.70501 -0.434316 -16.4968 23.9522 -0.434316 -16.4968
6430 1 -7.39662 -0.673683 -14.8772 -7.39662 -0.673683 18.7801
7703 1 -8.25459 -0.127004 -16.7209 -8.25459 -0.127004 16.9363
5308 1 -5.49621 -0.696009 -16.2195 -5.49621 -0.696009 -16.2195
1093 1 -3.62851 -0.589031 -16.5462 -3.62851 -0.589031 -16.5462
573 1 -2.85616 -1.49877 -15.4548 -2.85616 -1.49877 -15.4548
13301 1 -3.44011 -0.376176 -13.4362 -3.44011 -0.376176 -13.4362
2429 1 -16.1125 -15.8389 -13.8915 -16.1125 -15.8389 19.7658
9535 1 -14.9026 -15.9069 -14.1921 18.7547 -15.9069 -14.1921
135 1 -16.4565 -4.32568 -0.535321 -16.4565 -4.32568 -0.535321
15758 1 -13.6447 -15.359 -13.7588 20.0125 18.2982 -13.7588
13845 1 -11.9342 -15.9103 -13.9533 21.7231 17.7469 -13.9533
10044 1 -10.088 -16.6254 -14.8258 -10.088 17.0319 -14.8258
9119 1 -8.49906 -16.6296 -14.3973 -8.49906 -16.6296 -14.3973
74 1 -8.96423 -15.9405 -15.0411 -8.96423 -15.9405 -15.0411
8868 1 -6.64271 -16.3811 -15.3109 -6.64271 -16.3811 -15.3109
11648 1 -5.17309 -16.0211 -14.2957 -5.17309 -16.0211 19.3615
6376 1 -4.64596 -16.479 -15.5399 -4.64596 17.1783 18.1174
8956 1 -0.403668 -10.3362 -16.7391 -0.403668 -10.3362 -16.7391
10321 1 -3.48897 -16.6322 -15.3878 -3.48897 -16.6322 18.2695
5159 1 -3.02417 -15.1738 -14.3894 -3.02417 18.4835 -14.3894
13132 1 -0.158983 -0.848006 -1.64288 -0.158983 -0.848006 -1.64288
2354 1 -0.893375 -15.9303 -14.7505 -0.893375 -15.9303 18.9067
6678 1 -16.5328 -15.3039 -14.8452 -16.5328 18.3534 18.812
6965 1 -15.6595 -14.6874 -14.2436 -15.6595 18.9699 19.4137
3581 1 -12.8711 -14.6354 -14.6409 -12.8711 -14.6354 19.0164
12986 1 -11.8576 -15.2246 -14.7975 -11.8576 18.4327 -14.7975
14882 1 -10.1816 -15.1952 -15.0543 23.4757 18.462 18.6029
14187 1 -11.2759 -14.6537 -13.8257 22.3813 19.0036 -13.8257
4054 1 -9.2329 -14.3149 -14.7873 -9.2329 -14.3149 18.87
472 1 -7.87472 -15.618 -14.6731 -7.87472 -15.618 -14.6731
5100 1 -6.75514 -15.0473 -14.8204 -6.75514 18.6099 -14.8204
8669 1 -4.37912 -14.8854 -15.3304 -4.37912 -14.8854 -15.3304
8719 1 -3.04346 -14.0224 -14.9067 -3.04346 -14.0224 -14.9067
2126 1 -1.31283 -14.51 -14.9711 -1.31283 -14.51 18.6862
1176 1 -15.9758 -13.5051 -14.616 -15.9758 -13.5051 -14.616
9415 1 -16.0383 -12.9333 -15.6264 17.619 -12.9333 -15.6264
2372 1 -14.5109 -14.1735 -14.8021 -14.5109 -14.1735 18.8552
8786 1 -11.8159 -13.841 -14.6521 21.8414 -13.841 -14.6521
7900 1 -12.8676 -13.3893 -13.885 -12.8676 20.2679 19.7723
15064 1 -10.4341 -14.3738 -15.779 23.2231 -14.3738 17.8783
2488 1 -9.6486 -13.3617 -14.3014 -9.6486 -13.3617 19.3559
7848 1 -8.52728 -13.3804 -14.8276 -8.52728 20.2769 18.8297
523 1 -7.44128 -13.7838 -14.5841 -7.44128 -13.7838 -14.5841
13962 1 -6.51276 -13.1895 -13.863 27.1445 -13.1895 -13.863
10691 1 -4.31199 -13.916 -14.509 29.3453 -13.916 19.1483
4720 1 -2.56565 -13.984 -13.5996 -2.56565 19.6732 -13.5996
9859 1 -1.95098 -13.1922 -14.7923 -1.95098 -13.1922 -14.7923
9630 1 -0.826378 -13.4001 -14.4691 -0.826378 -13.4001 -14.4691
11606 1 -16.5492 -11.7736 -14.8102 17.1081 -11.7736 -14.8102
11856 1 -14.303 -11.3717 -13.3635 19.3543 -11.3717 20.2937
10488 1 -14.9493 -12.1586 -15.0333 18.7079 21.4987 18.6239
12827 1 -13.4509 -11.4375 -14.8934 -13.4509 22.2198 -14.8934
5296 1 -14.22 -12.994 -14.4679 -14.22 20.6633 -14.4679
10172 1 -12.6986 -11.9889 -13.9535 20.9586 -11.9889 -13.9535
767 1 -11.7876 -12.2906 -14.8967 -11.7876 -12.2906 -14.8967
1331 1 -10.6362 -11.8878 -14.1711 -10.6362 -11.8878 -14.1711
13813 1 -8.75771 -11.8039 -14.7216 24.8995 21.8534 -14.7216
4147 1 -7.23344 -12.395 -14.869 -7.23344 21.2623 -14.869
8173 1 -6.14874 -12.7255 -14.8175 -6.14874 20.9317 18.8398
8036 1 -6.49449 -11.333 -14.2841 -6.49449 22.3243 19.3731
8860 1 -4.96685 -12.9238 -14.1283 -4.96685 -12.9238 -14.1283
12016 1 -3.77238 -12.0945 -14.6744 -3.77238 -12.0945 18.9829
7644 1 -2.58191 -12.168 -13.9336 -2.58191 21.4892 19.7237
9896 1 -1.14292 -11.9578 -15.2301 -1.14292 -11.9578 -15.2301
1375 1 -16.6231 -10.4922 -14.5552 -16.6231 -10.4922 -14.5552
12056 1 -15.3716 -10.0977 -14.8277 -15.3716 -10.0977 18.8296
1175 1 -12.3687 -10.0933 -15.6835 -12.3687 -10.0933 -15.6835
8215 1 -12.2319 -11.0812 -14.7488 -12.2319 22.5761 18.9084
5720 1 -11.173 -10.936 -15.0796 -11.173 22.7212 -15.0796
733 1 -10.006 -10.7935 -14.637 -10.006 -10.7935 -14.637
3722 1 -7.59287 -11.3729 -14.6993 -7.59287 -11.3729 18.9579
3074 1 -6.04385 -10.2897 -14.4073 -6.04385 -10.2897 19.2499
3551 1 -5.09748 -11.7128 -14.046 -5.09748 -11.7128 -14.046
8083 1 -4.82132 -10.2498 -14.8107 -4.82132 -10.2498 18.8466
7037 1 -3.19595 -10.1467 -14.9773 -3.19595 23.5105 18.68
6174 1 -1.78401 -10.836 -14.8129 -1.78401 -10.836 18.8443
7279 1 -1.4892 -9.69509 -14.2922 -1.4892 -9.69509 -14.2922
9183 1 -0.690446 -11.4665 -14.0509 -0.690446 -11.4665 -14.0509
8180 1 -0.122097 -10.1029 -15.3036 -0.122097 -10.1029 -15.3036
53 1 -13.9758 -9.60575 -15.6914 -13.9758 -43.263 -15.6914
5986 1 -12.4385 -9.26553 -14.9915 -12.4385 -9.26553 -14.9915
808 1 -11.3322 -9.14559 -15.4714 -11.3322 -9.14559 -15.4714
740 1 -11.1896 -8.79185 -13.6077 -11.1896 -8.79185 -13.6077
1536 1 -9.54125 -9.60978 -14.1248 -9.54125 -9.60978 -14.1248
10984 1 -7.05769 -10.2858 -14.6217 26.5996 -10.2858 19.0356
9124 1 -7.97948 -8.58245 -14.4398 -7.97948 -8.58245 -14.4398
389 1 -6.13195 -9.10252 -13.913 -6.13195 -9.10252 -13.913
4295 1 -5.67468 -8.6777 -15.5227 -5.67468 -8.6777 -15.5227
751 1 -4.05589 -9.23189 -15.1894 -4.05589 -9.23189 -15.1894
8415 1 -2.28812 -8.78258 -15.3386 -2.28812 -8.78258 -15.3386
616 1 -1.1106 -9.23197 -15.6758 -1.1106 -9.23197 -15.6758
10528 1 -0.497728 -8.33231 -14.2969 -0.497728 -8.33231 19.3604
1812 1 -9.73987 -14.4121 -16.6061 -9.73987 -14.4121 -16.6061
8500 1 -16.5153 -8.46263 -14.6187 17.1419 -8.46263 -14.6187
8831 1 -15.3119 -8.41111 -14.6292 18.3453 -8.41111 -14.6292
3528 1 -13.3237 -9.0782 -14.4747 -13.3237 -9.0782 -14.4747
12045 1 -11.7225 -8.10255 -14.8518 21.9348 -8.10255 18.8055
2261 1 -8.86513 -8.07922 -14.751 -8.86513 -8.07922 18.9063
11538 1 -7.70793 -7.21262 -15.0031 25.9493 -7.21262 18.6541
1843 1 -6.83807 -8.33331 -14.5657 -6.83807 -8.33331 -14.5657
12283 1 -5.23012 -7.88873 -14.8228 -5.23012 -7.88873 18.8345
5386 1 -3.04109 -6.51416 -16.2401 -3.04109 27.1431 -16.2401
11584 1 -3.3724 -8.15676 -15.4953 -3.3724 -8.15676 18.162
5261 1 -1.90748 -7.66284 -14.1475 -1.90748 -7.66284 -14.1475
13260 1 -16.2336 -5.83709 -14.7024 17.4236 27.8202 -14.7024
8057 1 -14.7479 -6.89748 -14.3865 -14.7479 -6.89748 -14.3865
4711 1 -15.4341 -5.17271 -14.3574 -15.4341 28.4845 -14.3574
6334 1 -13.661 -6.29078 -15.083 -13.661 -6.29078 18.5743
8524 1 -12.1526 -6.01081 -14.6791 21.5047 -6.01081 -14.6791
3405 1 -9.61987 -7.13045 -14.8254 -9.61987 -7.13045 18.8318
480 1 -10.8093 -7.41021 -14.7743 -10.8093 -7.41021 -14.7743
741 1 -10.1533 -5.79921 -13.6297 -10.1533 -5.79921 -13.6297
12350 1 -7.62357 -5.99345 -14.3364 -7.62357 27.6638 -14.3364
9102 1 -6.70408 -5.98756 -15.3095 -6.70408 -5.98756 -15.3095
7366 1 -6.43869 -6.85526 -14.4801 -6.43869 -6.85526 19.1772
3004 1 -5.09692 -6.40437 -14.1036 -5.09692 -6.40437 19.5537
11381 1 -4.15036 -7.20093 -15.1934 29.5069 -7.20093 18.4638
1578 1 -4.12411 -6.4366 -13.5819 -4.12411 -6.4366 -13.5819
5563 1 -3.43589 -6.0579 -14.2421 -3.43589 -6.0579 -14.2421
13080 1 -0.831838 -6.01092 -13.9099 -0.831838 27.6463 -13.9099
2250 1 -1.50047 -6.73851 -14.8694 -1.50047 -6.73851 18.7879
13987 1 -16.2667 -3.84772 -14.9239 17.3906 -3.84772 -14.9239
10069 1 -13.9324 -5.03316 -14.8703 19.7248 -5.03316 -14.8703
3070 1 -11.9984 -4.73338 -14.813 -11.9984 -4.73338 18.8443
3363 1 -10.5123 -4.48492 -14.1939 -10.5123 -4.48492 19.4633
1975 1 -8.84222 -5.26074 -14.5459 -8.84222 -5.26074 -14.5459
1866 1 -7.96475 -3.97199 -14.1673 -7.96475 -3.97199 -14.1673
14616 1 -6.11295 -4.89923 -14.9811 -6.11295 -4.89923 18.6761
15509 1 -3.01623 -4.4958 -15.0176 -3.01623 -4.4958 18.6396
8505 1 -3.3938 -5.70378 -15.382 -3.3938 -5.70378 -15.382
11978 1 -1.70014 -4.45307 -15.0738 -1.70014 -4.45307 18.5835
12615 1 -0.638875 -4.51496 -14.9723 -0.638875 29.1423 -14.9723
12218 1 -8.53979 -4.56426 -16.3496 -8.53979 -4.56426 17.3077
4346 1 -15.1236 -3.63521 -14.0635 -15.1236 -3.63521 -14.0635
1894 1 -14.2426 -2.69638 -14.4402 -14.2426 -2.69638 -14.4402
323 1 -14.856 -4.34988 -15.7755 -14.856 -4.34988 -15.7755
4789 1 -12.4607 -3.38853 -15.4917 -12.4607 -3.38853 -15.4917
15950 1 -13.9351 -3.88098 -14.9961 19.7221 -3.88098 18.6611
914 1 -11.0964 -3.7308 -14.7825 -11.0964 -3.7308 -14.7825
8616 1 -9.9597 -4.43685 -15.2142 -9.9597 -4.43685 -15.2142
11676 1 -9.07935 -3.39992 -14.3833 24.5779 -3.39992 19.274
4321 1 -6.64603 -4.36749 -15.6743 -6.64603 -4.36749 -15.6743
2505 1 -7.77139 -2.89078 -14.4535 -7.77139 -2.89078 19.2038
3263 1 -6.77296 -3.12007 -14.1675 -6.77296 -3.12007 19.4898
621 1 -5.18499 -3.58008 -14.8585 -5.18499 -3.58008 -14.8585
13563 1 -3.27593 -3.41659 -15.2546 -3.27593 -3.41659 -15.2546
7275 1 -2.16817 -3.26954 -15.1985 -2.16817 30.3877 18.4587
6473 1 -16.8049 -1.8255 -15.4388 -16.8049 -1.8255 -15.4388
9133 1 -13.2623 -2.04657 -14.6526 20.395 -2.04657 -14.6526
6303 1 -11.5375 -2.04717 -14.6503 -11.5375 -2.04717 19.007
15923 1 -10.1199 -2.10447 -15.0799 23.5373 -2.10447 18.5773
9756 1 -8.27058 -1.90911 -15.2436 25.3867 -35.5664 -15.2436
9303 1 -8.38914 -1.49474 -13.9845 25.2681 -1.49474 -13.9845
4345 1 -6.79862 -2.09481 -15.3523 -6.79862 -2.09481 -15.3523
696 1 -5.79149 -2.77625 -15.2134 -5.79149 -2.77625 -15.2134
6646 1 -5.18784 -1.40967 -15.0268 -5.18784 -1.40967 18.6304
16068 1 -4.40685 -2.15768 -14.4725 29.2504 -2.15768 -14.4725
14637 1 -3.65509 -1.13869 -14.1783 -3.65509 -1.13869 -14.1783
4522 1 -3.63093 -2.33679 -15.7397 -3.63093 -2.33679 -15.7397
12800 1 -0.296643 -2.27969 -14.7713 -0.296643 -2.27969 -14.7713
8716 1 -1.47422 -2.10038 -14.5688 -1.47422 -2.10038 -14.5688
5094 1 -15.4492 -1.55698 -14.5388 -15.4492 -1.55698 -14.5388
4082 1 -14.8721 -0.36587 -15.1748 -14.8721 -0.36587 -15.1748
4349 1 -12.59 -1.14739 -15.469 -12.59 -1.14739 -15.469
9266 1 -13.2153 -1.13734 -14.0961 20.4419 -1.13734 -14.0961
1023 1 -13.6197 -0.401598 -15.3806 -13.6197 -0.401598 -15.3806
12071 1 -0.0770073 -8.81627 -0.335702 -0.0770073 -8.81627 -0.335702
5666 1 -10.6103 -1.24805 -15.013 -10.6103 -1.24805 -15.013
13678 1 -11.8188 -0.41619 -14.2822 -11.8188 -0.41619 -14.2822
12912 1 -9.82268 -0.185434 -14.5723 23.8346 -0.185434 19.0849
5740 1 -9.06538 -1.22098 -15.0353 -9.06538 -1.22098 -15.0353
1882 1 -6.66935 -1.48808 -14.1165 -6.66935 -1.48808 -14.1165
6257 1 -16.6867 -3.49391 -10.0409 -16.6867 -3.49391 23.6164
6851 1 -5.92374 -0.33782 -14.6298 -5.92374 -0.33782 19.0275
86 1 -4.65067 -1.18325 -13.0379 -4.65067 -1.18325 -13.0379
5528 1 -4.37695 -0.612192 -15.4301 -4.37695 -0.612192 -15.4301
3747 1 -2.08576 -0.0204924 -15.02 -2.08576 -0.0204924 18.6372
7424 1 -1.63914 -1.12229 -14.3118 -1.63914 32.535 19.3454
16139 1 -0.0129679 -0.362189 -12.0091 -0.0129679 -0.362189 21.6481
8361 1 -0.666402 -0.504448 -14.4433 -0.666402 -34.1617 -14.4433
3589 1 -2.31852 -12.0064 -0.188613 -2.31852 -12.0064 -0.188613
1810 1 -15.8855 -15.4137 -12.4204 -15.8855 -15.4137 -12.4204
14456 1 -15.775 -12.484 -0.216604 17.8823 21.1732 -0.216604
1290 1 -12.5291 -15.12 -13.3528 -12.5291 -15.12 -13.3528
10721 1 -9.88974 -16.402 -12.3496 23.7675 -16.402 -12.3496
11325 1 -10.7316 -15.8974 -13.7545 22.9256 -15.8974 19.9027
462 1 -8.34661 -16.3616 -13.0618 -8.34661 -16.3616 -13.0618
5916 1 -5.65569 -15.5319 -13.1145 -5.65569 18.1254 -13.1145
1968 1 -6.38333 -16.4175 -14.0901 -6.38333 -16.4175 -14.0901
934 1 -6.98929 -16.0027 -13.0559 -6.98929 -16.0027 -13.0559
8922 1 -0.268475 -12.4246 -14.7028 -0.268475 -12.4246 -14.7028
6597 1 -3.26256 -16.2759 -12.5583 -3.26256 17.3813 21.099
8261 1 -2.13858 -16.288 -12.8735 31.5187 -16.288 -12.8735
3335 1 -0.974426 -15.9099 -13.104 -0.974426 -15.9099 -13.104
5291 1 -1.077 -16.6608 -14.0204 -1.077 16.9965 -14.0204
761 1 -14.7669 -14.8026 -13.5396 -14.7669 -14.8026 -13.5396
1924 1 -13.9256 -13.6468 -13.688 -13.9256 -13.6468 -13.688
1740 1 -12.4493 -14.1122 -12.8067 21.208 -14.1122 -12.8067
14445 1 -11.2412 -15.431 -12.7538 22.416 18.2262 20.9034
4124 1 -9.72408 -14.1608 -13.2841 -9.72408 19.4965 -13.2841
9845 1 -8.72968 -13.3493 -13.2211 24.9276 -13.3493 -13.2211
3110 1 -9.15946 -15.3473 -12.4704 -9.15946 -15.3473 21.1869
6369 1 -8.06225 -15.0687 -13.6525 -8.06225 18.5886 20.0047
5217 1 -7.04257 -14.8139 -13.4925 -7.04257 18.8433 -13.4925
589 1 -5.11799 -13.8201 -13.6301 -5.11799 -13.8201 -13.6301
5700 1 -3.97924 -15.5476 -13.7384 -3.97924 18.1097 -13.7384
12351 1 -1.50236 -14.3736 -13.7728 32.1549 19.2837 -13.7728
3482 1 -2.51177 -14.6665 -12.7051 -2.51177 18.9908 20.9521
12143 1 -0.427251 -14.7685 -13.9449 -0.427251 -14.7685 19.7123
11146 1 -15.7852 -14.3509 -13.02 17.872 -14.3509 20.6373
2399 1 -15.4973 -13.0055 -13.6302 -15.4973 -13.0055 20.027
15396 1 -13.9163 -12.5575 -13.395 19.7409 21.0997 20.2623
13957 1 -11.6864 -12.7156 -13.0477 21.9708 20.9417 -13.0477
8850 1 -10.672 -13.2493 -13.5187 22.9852 -13.2493 -13.5187
1435 1 -8.85784 -12.4029 -13.7903 -8.85784 -12.4029 -13.7903
336 1 -7.59004 -13.5232 -13.3894 -7.59004 -13.5232 -13.3894
1429 1 -3.88898 -13.8886 -12.7971 -3.88898 -13.8886 -12.7971
9433 1 -3.43009 -13.2548 -13.8206 -3.43009 -13.2548 -13.8206
9890 1 -2.43545 -12.6618 -12.923 -2.43545 -12.6618 -12.923
14581 1 -0.688636 -14.104 -13.106 -0.688636 19.5533 -13.106
8734 1 -16.5867 -11.1942 -12.9121 17.0706 -11.1942 -12.9121
14266 1 -15.5133 -11.6272 -14.1335 18.1439 22.0301 -14.1335
10492 1 -11.2524 -11.675 -12.8661 22.4049 -11.675 20.7911
6711 1 -8.77103 -11.755 -12.7027 -8.77103 21.9023 20.9546
1461 1 -7.67936 -11.8981 -13.7238 -7.67936 -11.8981 -13.7238
5290 1 -6.54399 -11.8041 -13.2831 -6.54399 -11.8041 -13.2831
951 1 -5.56217 -12.8036 -13.1913 -5.56217 -12.8036 -13.1913
15864 1 -5.12177 -11.3321 -12.8293 -5.12177 22.3252 20.828
5990 1 -3.54637 -12.0812 -13.6387 -3.54637 -12.0812 -13.6387
7430 1 -3.01646 -10.8559 -13.3011 -3.01646 -10.8559 20.3562
4680 1 -1.39624 -12.387 -13.828 -1.39624 21.2702 -13.828
7931 1 -15.9406 -10.3568 -13.5918 -15.9406 23.3004 20.0655
849 1 -14.624 -10.2588 -13.0478 -14.624 -10.2588 -13.0478
6302 1 -12.9948 -10.4298 -13.7998 -12.9948 23.2275 -13.7998
12935 1 -12.7046 -11.7765 -12.6973 20.9527 -11.7765 -12.6973
4852 1 -11.7762 -10.2658 -13.3091 -11.7762 23.3914 -13.3091
5923 1 -9.77294 -11.8 -13.1545 -9.77294 -11.8 -13.1545
14478 1 -10.6645 -10.5292 -13.6678 22.9927 23.128 -13.6678
11712 1 -8.52613 -10.4943 -14.1774 25.1311 -10.4943 19.4798
3061 1 -8.58286 -9.51629 -13.2216 -8.58286 -9.51629 20.4356
6380 1 -7.3458 -10.7113 -13.7465 -7.3458 -10.7113 -13.7465
3618 1 -5.78636 -10.0536 -13.2834 -5.78636 -10.0536 20.3739
6994 1 -4.55996 -10.4998 -13.2919 -4.55996 -10.4998 20.3654
13517 1 -3.98708 -9.92017 -14.0611 -3.98708 23.7371 -14.0611
4581 1 -2.92924 -9.54196 -12.9914 -2.92924 -9.54196 -12.9914
3298 1 -1.75597 -11.0922 -13.7498 -1.75597 -11.0922 19.9074
4796 1 -0.833799 -10.1103 -13.2113 -0.833799 -10.1103 -13.2113
15631 1 -15.9895 -9.31611 -13.8162 17.6677 24.3411 19.841
8697 1 -15.6196 -8.61588 -13.0711 18.0377 -8.61588 -13.0711
10043 1 -14.4439 -8.90137 -14.0136 19.2134 -8.90137 -14.0136
9577 1 -13.4355 -8.91081 -12.8336 20.2218 -8.91081 -12.8336
12587 1 -12.379 -9.12793 -13.0112 21.2783 -9.12793 -13.0112
1687 1 -7.24342 -9.46202 -13.0791 -7.24342 -9.46202 -13.0791
1895 1 -4.64149 -7.7898 -13.4313 -4.64149 -7.7898 -13.4313
7070 1 -3.35347 -8.56013 -13.7502 -3.35347 -8.56013 19.9071
12340 1 -1.70517 -8.96604 -12.8731 -1.70517 -8.96604 20.7841
995 1 -2.36342 -9.09825 -13.8352 -2.36342 -9.09825 -13.8352
13829 1 -0.00598889 -9.33676 -13.9744 -0.00598889 -9.33676 -13.9744
13836 1 -6.48677 -6.39055 -16.7474 27.1705 -6.39055 -16.7474
15275 1 -14.0601 -6.6444 -13.3124 19.5972 -6.6444 20.3448
11708 1 -13.526 -8.04239 -13.589 -13.526 -8.04239 20.0683
12226 1 -12.1966 -7.63763 -13.6589 -12.1966 -7.63763 19.9984
192 1 -11.8586 -8.02669 -12.3802 -11.8586 -8.02669 -12.3802
10003 1 -10.7591 -7.2718 -13.497 22.8982 -7.2718 -13.497
5423 1 -10.0017 -8.21108 -13.4648 -10.0017 -8.21108 -13.4648
12169 1 -8.79749 -8.06919 -13.6271 -8.79749 -8.06919 -13.6271
11445 1 -7.85274 -7.17469 -13.6938 25.8045 -7.17469 19.9634
310 1 -5.94844 -7.44996 -13.5919 -5.94844 -7.44996 -13.5919
5155 1 -7.11359 -8.06143 -13.4748 -7.11359 25.5958 -13.4748
2324 1 -3.41132 -7.48041 -14.4785 -3.41132 -7.48041 19.1788
797 1 -2.89797 -7.7835 -13.3093 -2.89797 -7.7835 -13.3093
11182 1 -0.36527 -7.62722 -13.3649 -0.36527 -7.62722 20.2924
9927 1 -16.483 -5.24725 -13.1992 17.1743 -5.24725 -13.1992
2361 1 -15.6432 -7.1876 -13.159 -15.6432 -7.1876 20.4982
12159 1 -12.9935 -6.38318 -12.8375 -12.9935 -6.38318 20.8198
5279 1 -14.1933 -5.52318 -13.2067 -14.1933 -5.52318 -13.2067
2398 1 -11.8697 -6.44166 -13.1804 -11.8697 -6.44166 20.4769
793 1 -10.7788 -6.42117 -12.3963 -10.7788 -6.42117 -12.3963
205 1 -8.82188 -6.68932 -14.2722 -8.82188 -6.68932 -14.2722
2736 1 -8.42251 -5.71206 -13.2639 -8.42251 -5.71206 20.3934
618 1 -7.43454 -6.40097 -13.0794 26.2227 -6.40097 -13.0794
13632 1 -4.83358 -6.71745 -12.5028 -4.83358 -6.71745 -12.5028
9950 1 -3.64494 -6.64171 -12.2884 -3.64494 -6.64171 -12.2884
13477 1 -2.0522 -6.5543 -13.6527 -2.0522 27.103 -13.6527
15681 1 -0.024241 -6.77477 -12.3833 -0.024241 -6.77477 21.2739
3974 1 -16.6623 -3.94129 -12.4755 -16.6623 -3.94129 21.1818
5522 1 -12.7176 -5.28565 -13.9394 -12.7176 -5.28565 -13.9394
7056 1 -13.6822 -4.5024 -12.338 -13.6822 -4.5024 21.3193
3763 1 -11.1712 -5.17528 -13.0871 -11.1712 -5.17528 20.5702
2264 1 -8.93774 -4.97017 -12.7864 -8.93774 -4.97017 20.8708
22 1 -7.3536 -4.30637 -13.0612 -7.3536 -4.30637 -13.0612
10259 1 -6.52896 -6.14615 -13.6481 -6.52896 -6.14615 -13.6481
570 1 -6.46741 -4.71454 -12.678 -6.46741 -4.71454 -12.678
1590 1 -5.20809 -5.48717 -13.5472 -5.20809 -5.48717 -13.5472
2117 1 -3.96284 -4.92517 -13.671 -3.96284 -4.92517 -13.671
1702 1 -1.58627 -5.16485 -14.1466 -1.58627 -5.16485 -14.1466
10824 1 -2.85638 -5.62927 -13.0627 -2.85638 -5.62927 20.5945
10014 1 -1.0494 -5.72608 -12.9076 -1.0494 -5.72608 -12.9076
13423 1 -15.8408 -2.9233 -13.3062 17.8165 -2.9233 -13.3062
4176 1 -14.8872 -4.52314 -13.1582 -14.8872 -4.52314 -13.1582
9339 1 -13.2027 -4.12794 -14.3205 20.4545 -4.12794 -14.3205
10037 1 -11.571 -4.23427 -13.5585 -11.571 -4.23427 -13.5585
8744 1 -12.0631 -3.16032 -14.025 21.5941 -3.16032 -14.025
6 1 -9.67495 -3.59831 -13.5027 -9.67495 -3.59831 -13.5027
7732 1 -8.83708 -3.6599 -12.3639 -8.83708 -3.6599 21.2934
4205 1 -6.92276 -4.78773 -14.0654 -6.92276 28.8695 -14.0654
1408 1 -5.04828 -3.54388 -13.3713 -5.04828 -3.54388 -13.3713
11792 1 -3.04313 -3.50109 -13.3313 -3.04313 -3.50109 20.3259
4691 1 -3.04495 -2.58399 -14.3267 -3.04495 -2.58399 -14.3267
3130 1 -4.43564 -4.28851 -14.8275 -4.43564 -4.28851 18.8297
287 1 -0.450973 -3.95444 -13.7558 -0.450973 29.7028 -13.7558
9673 1 -2.09429 -4.39854 -13.6982 -2.09429 -4.39854 -13.6982
13677 1 -0.192398 -2.77238 -13.6751 -0.192398 30.8849 -13.6751
14908 1 -16.6699 -2.29915 -14.1116 16.9874 -2.29915 19.5456
13844 1 -16.2543 -2.11004 -12.5261 17.4029 -2.11004 -12.5261
12427 1 -15.2271 -2.13056 -13.5822 18.4301 -2.13056 -13.5822
392 1 -12.8914 -2.38415 -13.6552 -12.8914 -2.38415 -13.6552
2576 1 -11.7013 -1.39711 -13.114 -11.7013 -1.39711 20.5432
5178 1 -11.1855 -2.40849 -13.7538 -11.1855 -2.40849 -13.7538
1763 1 -10.1299 -2.21435 -13.8258 -10.1299 -2.21435 -13.8258
1032 1 -8.23717 -2.88262 -13.1664 -8.23717 -2.88262 -13.1664
11563 1 -7.43778 -1.3351 -13.0412 -7.43778 -1.3351 20.616
324 1 -5.72121 -2.06829 -13.7555 -5.72121 -2.06829 -13.7555
2589 1 -4.21321 -2.97248 -13.2237 -4.21321 -2.97248 20.4336
9111 1 -1.83802 -2.9513 -13.7472 -1.83802 -2.9513 -13.7472
5834 1 -1.26515 -1.30355 -13.0926 -1.26515 -1.30355 -13.0926
13956 1 -15.8652 -1.20829 -13.6235 17.7921 -1.20829 -13.6235
12386 1 -14.3732 -0.945851 -14.3474 19.284 -0.945851 -14.3474
1503 1 -12.2969 -0.0607873 -12.9027 -12.2969 -33.718 -12.9027
11310 1 -0.0838989 -3.83793 -15.921 -0.0838989 -37.4952 17.7362
5564 1 -10.3032 -1.63952 -12.7964 -10.3032 -1.63952 -12.7964
13955 1 -16.6271 -14.7827 -13.5421 17.0302 18.8746 -13.5421
4025 1 -9.48879 -1.29993 -13.417 -9.48879 -1.29993 20.2403