ITEM: TIMESTEP
0
ITEM: NUMBER OF ATOMS
16384
ITEM: BOX BOUNDS pp pp pp
-1.6828627036276380e+01 1.6828627036276380e+01
-1.6828627036276380e+01 1.6828627036276380e+01
-1.6828627036276380e+01 1.6828627036276380e+01
ITEM: ATOMS id type x y z xu yu zu
13919 1 -15.2308 -16.1224 -16.5408 18.4265 17.5348 -16.5408
15121 1 -13.3205 -16.7179 -15.4823 20.3368 16.9393 18.175
7406 1 -12.8398 -15.5879 -16.2416 -12.8398 18.0694 17.4157
7394 1 -8.77967 -15.8866 -15.8325 -8.77967 17.7707 17.8248
16071 1 -7.77176 -15.9825 -16.7363 -7.77176 17.6747 16.921
1372 1 -6.05802 -15.8337 -16.0468 -6.05802 -15.8337 -16.0468
5159 1 -4.69931 -16.1637 -15.715 -4.69931 17.4935 -15.715
7038 1 -3.91061 -16.1036 -16.7829 -3.91061 17.5537 16.8744
6363 1 -3.39794 -16.5427 -15.7155 -3.39794 17.1146 17.9417
12571 1 -1.86891 -16.0164 -16.4199 -1.86891 17.6409 -16.4199
13322 1 -0.689497 -15.5959 -16.1627 -0.689497 -15.5959 -16.1627
13599 1 -16.7968 -14.4491 -16.1768 16.8605 19.2081 -16.1768
11966 1 -15.6635 -15.0478 -16.6195 17.9938 -15.0478 17.0377
554 1 -13.5551 -14.6433 -16.397 -13.5551 -14.6433 -16.397
1740 1 -12.8925 -14.1988 -15.4536 20.7648 -14.1988 -15.4536
15615 1 -11.8875 -15.0761 -15.6865 -11.8875 18.5811 17.9708
1812 1 -11.2838 -14.5003 -16.8022 -11.2838 -14.5003 -16.8022
4859 1 -9.07032 -14.6073 -15.9931 -9.07032 19.0499 -15.9931
7332 1 -7.88773 -15.4204 -15.4983 -7.88773 18.2368 18.1589
9435 1 -7.10888 -14.4784 -16.3976 26.5484 -14.4784 -16.3976
6376 1 -5.63762 -14.7842 -15.9406 -5.63762 18.873 17.7167
5221 1 -2.96094 -15.2916 -16.1877 -2.96094 18.3657 -16.1877
8669 1 -4.10314 -14.6445 -16.566 -4.10314 -14.6445 -16.566
8255 1 -3.26268 -14.0917 -15.9127 -3.26268 -14.0917 -15.9127
15718 1 -1.78965 -14.8692 -16.3051 -1.78965 18.7881 -16.3051
2729 1 -15.6102 -13.0769 -15.6561 -15.6102 -13.0769 18.0011
6965 1 -14.5707 -13.9158 -16.0581 -14.5707 19.7414 17.5991
1251 1 -11.9472 -13.9337 -16.3027 -11.9472 19.7236 -16.3027
1331 1 -11.8265 -12.9748 -15.7606 -11.8265 -12.9748 -15.7606
11190 1 -10.9162 -13.8534 -15.4371 -10.9162 -13.8534 18.2202
3519 1 -10.3216 -12.6871 -15.6207 -10.3216 -12.6871 18.0365
4665 1 -8.36551 -13.8191 -16.7734 -8.36551 19.8382 -16.7734
1723 1 -7.60118 -13.6436 -15.5777 -7.60118 -13.6436 -15.5777
3293 1 -6.42806 -13.7248 -15.9982 -6.42806 -13.7248 17.6591
10749 1 -5.63553 -12.8953 -16.5236 -5.63553 -12.8953 -16.5236
4572 1 -4.77952 -13.4575 -15.6842 -4.77952 20.1997 -15.6842
1925 1 -3.399 -12.8108 -16.5582 -3.399 -12.8108 -16.5582
12244 1 -1.96282 -13.0281 -15.4549 31.6944 -13.0281 18.2024
13157 1 -2.26583 -13.7798 -16.3416 -2.26583 19.8775 -16.3416
2962 1 -1.10703 -13.1707 -16.4829 -1.10703 -13.1707 17.1744
1871 1 -16.409 -12.2764 -16.7053 -16.409 -12.2764 16.952
5662 1 -16.2402 -12.2543 -15.4745 -16.2402 21.403 -15.4745
15107 1 -14.531 -11.8041 -15.738 19.1263 -11.8041 17.9192
1868 1 -14.9516 -12.2083 -16.777 -14.9516 -12.2083 -16.777
3581 1 -13.5289 -12.5963 -16.2818 -13.5289 -12.5963 17.3755
1566 1 -12.8482 -12.0788 -15.582 -12.8482 -12.0788 -15.582
1978 1 -13.7797 -11.4256 -16.7657 -13.7797 -11.4256 -16.7657
8786 1 -12.1739 -12.3608 -16.613 21.4834 -12.3608 -16.613
10949 1 -9.2719 -11.3356 -15.7248 24.3854 -11.3356 17.9324
6529 1 -7.75063 -12.2237 -16.6623 -7.75063 -12.2237 16.995
1429 1 -5.90866 -12.3295 -15.5069 -5.90866 -12.3295 -15.5069
12016 1 -5.7373 -11.5848 -16.3339 -5.7373 -11.5848 17.3234
6523 1 -6.71181 -12.4909 -16.4935 -6.71181 21.1664 17.1638
5027 1 -4.68568 -12.2392 -16.1588 -4.68568 21.4181 -16.1588
1724 1 -1.75933 -11.5117 -16.1357 -1.75933 -11.5117 -16.1357
1732 1 -2.77222 -11.6871 -15.6677 -2.77222 -11.6871 -15.6677
15834 1 -0.389149 -12.0742 -15.6027 -0.389149 -12.0742 18.0546
603 1 -15.0485 -10.0406 -15.7285 -15.0485 -10.0406 -15.7285
4219 1 -12.488 -10.6081 -15.7397 -12.488 23.0491 -15.7397
12827 1 -11.4131 -11.2025 -16.2923 -11.4131 22.4548 -16.2923
8215 1 -11.5779 -10.2418 -15.4761 -11.5779 23.4155 18.1811
1175 1 -9.35146 -10.3492 -16.2504 -9.35146 -10.3492 -16.2504
8173 1 -7.48715 -10.0118 -16.0291 -7.48715 23.6455 17.6282
3722 1 -8.10428 -10.7657 -16.5347 -8.10428 -10.7657 17.1225
8860 1 -4.95852 -10.4373 -16.3842 -4.95852 -10.4373 -16.3842
9433 1 -3.587 -10.4049 -15.6436 -3.587 -10.4049 -15.6436
12289 1 -0.58272 -10.4502 -16.1155 -0.58272 23.207 17.5418
16141 1 -16.3052 -9.34131 -15.8803 17.3521 -9.34131 17.777
12192 1 -14.5997 -8.42412 -16.1838 19.0576 -8.42412 17.4734
179 1 -13.1728 -9.43933 -16.1717 -13.1728 -9.43933 -16.1717
3528 1 -13.1144 -8.45287 -16.0631 -13.1144 -8.45287 -16.0631
1143 1 -11.977 -9.73711 -16.5658 -11.977 -9.73711 -16.5658
5503 1 -11.4366 -8.78684 -16.2241 -11.4366 24.8704 -16.2241
13617 1 -10.0173 -9.49057 -16.0295 -10.0173 24.1667 -16.0295
1438 1 -9.19764 -8.49565 -16.2647 -9.19764 -8.49565 -16.2647
9790 1 -7.43749 -8.90557 -15.6619 -7.43749 -8.90557 -15.6619
3551 1 -6.28055 -9.70934 -15.9909 -6.28055 -9.70934 -15.9909
10054 1 -5.22313 -8.63854 -15.9084 -5.22313 -8.63854 -15.9084
4689 1 -3.12968 -8.74598 -15.9394 -3.12968 -8.74598 -15.9394
15709 1 -1.82823 -8.88502 -15.608 -1.82823 24.7722 -15.608
10753 1 -0.0270759 -8.62907 -15.7962 33.6302 -8.62907 17.8611
10187 1 -0.572042 -9.44883 -16.3928 -0.572042 -9.44883 -16.3928
1577 1 -16.5591 -7.26651 -16.0559 -16.5591 -7.26651 -16.0559
3511 1 -13.9626 -7.37637 -16.3208 -13.9626 -7.37637 17.3364
14935 1 -11.9756 -7.44619 -15.4645 -11.9756 -7.44619 18.1928
3051 1 -11.2791 -7.51012 -16.6223 -11.2791 -7.51012 17.0349
16305 1 -10.4622 -8.36653 -16.3824 -10.4622 -8.36653 17.2749
1536 1 -7.99948 -7.96585 -15.4543 -7.99948 -7.96585 -15.4543
2147 1 -7.95488 -7.39616 -16.7619 -7.95488 -7.39616 16.8953
7639 1 -7.10359 -7.5356 -15.6982 -7.10359 -7.5356 17.959
2873 1 -5.77818 -7.48966 -16.1499 -5.77818 -7.48966 17.5074
2004 1 -4.10734 -7.54587 -16.7094 -4.10734 -7.54587 -16.7094
8083 1 -2.1625 -7.06251 -16.4569 -2.1625 -7.06251 17.2003
8503 1 -1.04705 -8.03197 -16.0144 -1.04705 -8.03197 -16.0144
8691 1 -0.175588 -7.21336 -16.5608 -0.175588 -7.21336 -16.5608
4619 1 -16.5104 -5.95027 -15.8465 -16.5104 -5.95027 -15.8465
13455 1 -14.1742 -6.26879 -16.5858 19.483 27.3885 -16.5858
64 1 -15.1484 -6.60638 -16.1358 -15.1484 -6.60638 -16.1358
1953 1 -13.0368 -5.7422 -16.4713 -13.0368 -5.7422 -16.4713
2623 1 -12.916 -6.98413 -16.5294 -12.916 -6.98413 17.1278
6334 1 -12.5323 -6.16984 -15.4706 -12.5323 -6.16984 18.1866
335 1 -11.0163 -6.42448 -15.8324 -11.0163 -6.42448 -15.8324
6982 1 -10.1531 -5.96071 -16.6793 -10.1531 -5.96071 16.978
12503 1 -9.00423 -6.69975 -15.7505 24.653 26.9575 -15.7505
2261 1 -8.96133 -5.62825 -16.532 -8.96133 -5.62825 17.1252
11538 1 -7.82065 -6.1795 -16.0504 25.8366 -6.1795 17.6068
1481 1 -5.25054 -6.1802 -15.8899 -5.25054 -6.1802 -15.8899
8265 1 -4.45264 -5.69064 -16.6342 -4.45264 -5.69064 -16.6342
4715 1 -3.94926 -6.47924 -15.8684 -3.94926 27.178 -15.8684
2324 1 -1.002 -6.51584 -15.7402 -1.002 -6.51584 17.9171
11392 1 -15.8237 -4.78536 -16.5536 17.8336 -4.78536 17.1037
10751 1 -14.5963 -5.12528 -16.2584 19.0609 -5.12528 17.3988
4711 1 -13.8187 -5.52451 -15.65 -13.8187 28.1327 -15.65
10069 1 -12.6446 -4.60504 -15.6688 21.0126 -4.60504 -15.6688
2649 1 -11.3586 -4.91117 -16.3434 -11.3586 -4.91117 17.3138
1316 1 -10.0936 -4.71876 -16.824 -10.0936 -4.71876 -16.824
3405 1 -8.28693 -4.58504 -16.5875 -8.28693 -4.58504 17.0697
2611 1 -6.44623 -5.27786 -16.054 -6.44623 -5.27786 17.6033
13563 1 -3.94337 -4.94415 -15.8233 -3.94337 -4.94415 -15.8233
81 1 -2.99236 -5.39368 -15.6067 -2.99236 -5.39368 -15.6067
15509 1 -1.58415 -4.46261 -16.2873 -1.58415 -4.46261 17.37
10316 1 -0.630968 -5.38349 -16.2216 -0.630968 -5.38349 17.4356
14606 1 -16.6769 -3.25159 -15.6244 16.9804 -3.25159 18.0328
2333 1 -15.7569 -3.33026 -16.0126 -15.7569 -3.33026 17.6447
1363 1 -13.235 -3.65697 -16.462 -13.235 -3.65697 -16.462
2303 1 -11.7719 -3.47715 -15.5558 -11.7719 -3.47715 18.1015
356 1 -10.5226 -3.20188 -15.496 -10.5226 -3.20188 -15.496
2264 1 -9.31283 -3.43123 -15.9066 -9.31283 -3.43123 17.7506
476 1 -9.26936 -4.11207 -16.7677 -9.26936 -4.11207 -16.7677
4995 1 -7.02931 -4.0596 -16.2313 -7.02931 -4.0596 -16.2313
3424 1 -5.39893 -4.07558 -16.6538 -5.39893 -4.07558 17.0034
13436 1 -2.93887 -3.54162 -15.9923 -2.93887 30.1156 -15.9923
6214 1 -3.90873 -3.69042 -16.6613 -3.90873 -3.69042 16.9959
13292 1 -1.66405 -2.9973 -15.9168 -1.66405 -2.9973 -15.9168
1169 1 -0.729842 -3.71086 -16.4298 -0.729842 -3.71086 -16.4298
829 1 -16.3982 -1.5043 -16.6411 -16.3982 -1.5043 -16.6411
8760 1 -15.1796 -1.71166 -16.5379 18.4776 -1.71166 -16.5379
4068 1 -14.7547 -2.70183 -16.4007 -14.7547 -2.70183 -16.4007
323 1 -14.6495 -2.02085 -15.4805 -14.6495 -2.02085 -15.4805
9339 1 -13.5591 -2.26967 -16.4068 20.0981 -2.26967 -16.4068
13690 1 -10.9536 -2.1865 -15.633 22.7036 -2.1865 -15.633
12420 1 -8.98297 -2.25047 -15.7997 24.6743 -2.25047 -15.7997
6430 1 -8.20789 -1.80425 -16.5553 -8.20789 -1.80425 17.102
1882 1 -7.39229 -2.6506 -15.7674 -7.39229 -2.6506 -15.7674
5385 1 -5.64341 -1.66933 -15.6689 -5.64341 -1.66933 -15.6689
1275 1 -4.03555 -2.4885 -16.1533 -4.03555 -2.4885 -16.1533
4522 1 -3.17058 -2.08661 -15.7353 -3.17058 -2.08661 -15.7353
3802 1 -2.61799 -1.45486 -16.631 -2.61799 -1.45486 17.0262
11530 1 -0.245226 -2.51935 -16.37 -0.245226 -2.51935 17.2872
11013 1 -15.8881 -1.34807 -15.4406 17.7691 -1.34807 18.2166
9060 1 -14.7777 -0.24134 -16.0145 18.8796 -0.24134 -16.0145
4299 1 -13.1256 -1.10311 -15.8165 -13.1256 -1.10311 -15.8165
10238 1 -13.9169 -1.23404 -16.823 19.7404 -1.23404 -16.823
3869 1 -11.7686 -0.426784 -16.7187 -11.7686 -0.426784 16.9386
11507 1 -11.141 -0.960304 -16.1533 22.5163 -0.960304 17.504
12912 1 -9.92206 -0.899987 -15.5308 23.7352 -0.899987 18.1264
15923 1 -9.16247 -1.25385 -16.6356 24.4948 -1.25385 17.0216
5304 1 -7.57824 -0.868905 -16.6717 -7.57824 32.7883 -16.6717
1690 1 -6.47204 -1.34187 -16.5565 -6.47204 -1.34187 -16.5565
1093 1 -5.35852 -0.477888 -15.5665 -5.35852 -0.477888 -15.5665
12204 1 -2.85367 -0.844758 -15.7086 -2.85367 -0.844758 -15.7086
676 1 -2.12184 -0.217964 -16.3919 -2.12184 -0.217964 -16.3919
15143 1 -1.23086 -1.1796 -15.8272 -1.23086 -1.1796 17.8301
671 1 -15.6106 -15.4614 -15.2905 -15.6106 -15.4614 -15.2905
3238 1 -14.8851 -16.4185 -15.1478 -14.8851 -16.4185 18.5095
1924 1 -13.6934 -16.077 -14.0726 -13.6934 -16.077 -14.0726
2372 1 -12.3056 -16.0885 -14.6822 -12.3056 -16.0885 18.9751
4514 1 -11.3264 -16.5815 -14.8437 -11.3264 17.0757 -14.8437
14445 1 -10.5421 -15.9752 -14.9776 23.1151 17.682 18.6796
15064 1 -8.65669 -15.6439 -14.8049 25.0006 -15.6439 18.8524
472 1 -6.27049 -15.6476 -14.7963 -6.27049 -15.6476 -14.7963
1171 1 -6.9686 -16.6138 -14.5808 -40.6259 -16.6138 -14.5808
10321 1 -5.52788 -16.7382 -14.4309 -5.52788 -16.7382 19.2264
4720 1 -4.07333 -16.716 -14.5892 -4.07333 16.9412 -14.5892
2354 1 -3.46952 -15.5804 -15.2639 -3.46952 -15.5804 18.3934
6113 1 -2.06935 -16.0707 -14.729 -2.06935 17.5866 -14.729
5937 1 -1.00459 -15.6235 -15.0125 -1.00459 18.0337 -15.0125
10508 1 -0.333638 -16.7119 -14.5718 33.3236 -16.7119 19.0855
13955 1 -15.4392 -14.5114 -15.0143 18.2181 19.1458 -15.0143
6038 1 -16.7925 -14.4442 -14.8271 -16.7925 19.2131 18.8301
2429 1 -14.0738 -15.3729 -14.7877 -14.0738 -15.3729 18.8696
15396 1 -12.2093 -14.9256 -14.6989 21.448 18.7317 18.9583
14187 1 -11.4541 -14.0559 -14.5213 22.2032 19.6013 -14.5213
4054 1 -9.76357 -14.9626 -15.1674 -9.76357 -14.9626 18.4899
8301 1 -6.99352 -14.221 -14.4218 -6.99352 -14.221 -14.4218
5916 1 -4.66887 -15.3339 -14.8945 -4.66887 18.3234 -14.8945
5700 1 -5.4314 -14.5297 -14.5181 -5.4314 19.1275 -14.5181
3482 1 -3.95163 -14.3302 -14.5956 -3.95163 19.327 19.0616
5300 1 -2.36583 -14.9366 -15.0121 -2.36583 18.7206 -15.0121
9415 1 -16.0191 -13.236 -14.3562 17.6382 -13.236 -14.3562
2399 1 -13.8395 -13.966 -14.8032 -13.8395 -13.966 18.854
1176 1 -13.765 -12.6529 -15.0179 -13.765 -12.6529 -15.0179
7900 1 -12.6064 -13.1777 -14.3309 -12.6064 20.4795 19.3264
7848 1 -8.57241 -13.5188 -14.8293 -8.57241 20.1385 18.828
13813 1 -9.53705 -13.38 -15.0998 24.1202 20.2773 -15.0998
3127 1 -5.69116 -13.4198 -14.7245 -5.69116 -13.4198 18.9328
12351 1 -2.84558 -13.8536 -14.7856 30.8117 19.8036 -14.7856
12146 1 -1.26616 -13.5006 -14.6485 -1.26616 -13.5006 19.0087
9099 1 -0.21128 -13.6933 -14.9275 -0.21128 -13.6933 -14.9275
8734 1 -16.0821 -11.4825 -14.3665 17.5752 -11.4825 -14.3665
2051 1 -14.7687 -11.7911 -14.5763 -14.7687 -11.7911 19.0809
10488 1 -14.2668 -12.5102 -14.1032 19.3904 21.1471 19.5541
2488 1 -11.7726 -11.3211 -14.5802 -11.7726 -11.3211 19.077
10172 1 -10.8621 -11.8647 -14.9116 22.7951 -11.8647 -14.9116
4147 1 -8.49553 -12.0813 -14.421 -8.49553 21.5759 -14.421
336 1 -9.55338 -11.2842 -14.4828 -9.55338 -11.2842 -14.4828
15864 1 -7.6864 -11.5174 -15.3745 -7.6864 22.1399 18.2827
13962 1 -7.3531 -12.1761 -14.0776 26.3042 -12.1761 -14.0776
8868 1 -6.94104 -12.2474 -15.2782 -6.94104 -12.2474 -15.2782
2298 1 -2.86696 -12.4604 -14.831 -2.86696 -12.4604 18.8263
13517 1 -4.044 -12.1238 -15.1532 -4.044 21.5334 -15.1532
6944 1 -2.57751 -11.5099 -14.3066 -2.57751 22.1473 19.3507
6428 1 -1.26468 -11.7748 -14.9547 -1.26468 21.8824 18.7025
4007 1 -15.4375 -10.7098 -14.9551 -15.4375 -10.7098 18.7022
1593 1 -16.7226 -10.2131 -14.2471 -16.7226 -10.2131 -14.2471
319 1 -13.4694 -11.0419 -15.3115 -13.4694 -11.0419 -15.3115
11856 1 -12.5374 -10.3854 -14.5139 21.1198 -10.3854 19.1433
4235 1 -10.3122 -10.4083 -15.0636 -10.3122 23.2489 18.5937
2736 1 -9.83748 -10.0067 -14.0277 -9.83748 -10.0067 19.6295
8036 1 -8.76143 -9.96404 -14.9014 -8.76143 23.6932 18.7559
3074 1 -7.45167 -10.6458 -14.7197 -7.45167 -10.6458 18.9375
389 1 -5.84284 -10.4252 -15.0837 -5.84284 -10.4252 -15.0837
6174 1 -4.67862 -10.6507 -14.7365 -4.67862 -10.6507 18.9208
7037 1 -3.24413 -10.4459 -14.281 -3.24413 23.2114 19.3763
10961 1 -1.44586 -10.3416 -15.3128 -1.44586 -10.3416 18.3445
11149 1 -2.40834 -10.6392 -15.1136 -2.40834 -10.6392 18.5436
8611 1 -0.774141 -10.0267 -14.5071 -0.774141 -10.0267 -14.5071
12056 1 -15.9349 -9.41021 -14.2817 -15.9349 -9.41021 19.3756
1375 1 -14.8696 -9.10031 -15.0122 -14.8696 -9.10031 -15.0122
10043 1 -14.7069 -8.48197 -14.1366 18.9503 -8.48197 -14.1366
13271 1 -13.6429 -9.3491 -14.9001 20.0143 24.3082 -14.9001
2361 1 -13.0724 -8.48835 -14.3393 -13.0724 -8.48835 19.318
5986 1 -12.1953 -9.12376 -14.456 -12.1953 -9.12376 -14.456
5423 1 -10.648 -8.95586 -15.0277 -10.648 -8.95586 -15.0277
733 1 -9.48515 -8.81531 -14.1117 -9.48515 -8.81531 -14.1117
808 1 -8.04781 -8.91888 -14.3603 -8.04781 -8.91888 -14.3603
1426 1 -6.98113 -9.61868 -14.1837 -6.98113 -9.61868 -14.1837
1305 1 -6.19619 -8.75352 -14.963 -6.19619 -8.75352 -14.963
1017 1 -5.2297 -8.52453 -14.2249 -5.2297 -8.52453 -14.2249
5261 1 -3.12688 -9.14364 -14.9059 -3.12688 -9.14364 -14.9059
9300 1 -0.210808 -8.67306 -14.2863 -0.210808 -8.67306 -14.2863
7964 1 -15.9285 -7.70411 -15.2223 -15.9285 25.9531 18.4349
53 1 -14.4787 -8.09401 -15.0438 -14.4787 -41.7513 -15.0438
13260 1 -15.2149 -7.26824 -14.4732 18.4423 26.389 -14.4732
11708 1 -12.7971 -7.30393 -14.143 -12.7971 -7.30393 19.5142
12226 1 -11.8204 -7.69302 -14.3661 -11.8204 -7.69302 19.2911
1975 1 -10.1651 -7.81363 -14.1978 -10.1651 -7.81363 -14.1978
12522 1 -10.1342 -7.04821 -15.192 -10.1342 -7.04821 -15.192
4034 1 -9.49869 -8.16465 -15.2337 -9.49869 -8.16465 18.4236
741 1 -8.95798 -7.28061 -14.267 -8.95798 -7.28061 -14.267
10984 1 -7.13014 -7.46088 -14.3201 26.5271 -7.46088 19.3372
1843 1 -4.56249 -7.32016 -14.3966 -4.56249 -7.32016 -14.3966
10528 1 -4.0604 -8.25382 -14.6405 -4.0604 -8.25382 19.0168
4295 1 -3.37596 -7.74467 -15.3229 -3.37596 -7.74467 -15.3229
616 1 -1.67028 -8.11695 -14.606 -1.67028 -8.11695 -14.606
797 1 -2.56968 -7.48387 -14.2861 -2.56968 -7.48387 -14.2861
3015 1 -0.353074 -7.42292 -14.8998 -0.353074 -7.42292 18.7574
13987 1 -15.465 -5.76215 -14.8911 18.1923 -5.76215 -14.8911
1965 1 -14.3716 -6.72021 -15.0028 -14.3716 -6.72021 -15.0028
5025 1 -10.1534 -5.87633 -15.0135 -10.1534 -5.87633 -15.0135
793 1 -11.1317 -6.23795 -14.5243 -11.1317 -6.23795 -14.5243
11445 1 -8.72554 -6.15033 -14.1258 24.9317 -6.15033 19.5315
12169 1 -8.22253 -6.63856 -14.9784 -8.22253 -6.63856 -14.9784
1760 1 -7.14557 -6.59189 -15.0856 -7.14557 -6.59189 -15.0856
11381 1 -5.79274 -6.7202 -14.9099 27.8645 -6.7202 18.7473
12350 1 -6.42536 -5.71443 -14.8501 -6.42536 27.9428 -14.8501
8505 1 -3.16758 -6.70945 -15.2479 -3.16758 -6.70945 -15.2479
1578 1 -4.01224 -6.20217 -14.3318 -4.01224 -6.20217 -14.3318
2117 1 -1.64767 -6.26512 -14.2819 -1.64767 -6.26512 -14.2819
2198 1 -16.0578 -4.60304 -15.347 -16.0578 -4.60304 18.3102
9529 1 -15.0472 -4.74435 -14.6476 18.6101 -4.74435 -14.6476
5522 1 -13.2674 -5.0465 -14.9203 -13.2674 -5.0465 -14.9203
480 1 -11.6474 -5.39834 -15.1045 -11.6474 -5.39834 -15.1045
3070 1 -10.589 -4.64404 -15.1228 -10.589 -4.64404 18.5345
618 1 -9.45665 -5.42739 -14.2096 24.2006 -5.42739 -14.2096
6 1 -9.10485 -4.49745 -15.1123 -9.10485 -4.49745 -15.1123
1866 1 -7.71456 -5.11223 -15.2531 -7.71456 -5.11223 -15.2531
3263 1 -6.23529 -4.5243 -14.2982 -6.23529 -4.5243 19.359
10259 1 -5.23023 -5.28891 -14.7151 -5.23023 -5.28891 -14.7151
11792 1 -4.33639 -4.40349 -14.1406 -4.33639 -4.40349 19.5166
9673 1 -3.11357 -4.33011 -14.8639 -3.11357 -4.33011 -14.8639
11978 1 -1.16658 -4.45857 -14.8657 -1.16658 -4.45857 18.7915
9285 1 -16.4479 -2.91188 -14.4849 17.2094 -2.91188 -14.4849
1707 1 -14.3936 -3.75951 -15.3705 -14.3936 -3.75951 -15.3705
10490 1 -15.3111 -3.15007 -14.6932 18.3461 -3.15007 18.964
6501 1 -13.2593 -3.68439 -14.6348 -13.2593 -3.68439 19.0224
4724 1 -11.3902 -2.83866 -14.025 -11.3902 -2.83866 -14.025
4789 1 -12.5878 -2.95153 -15.0668 -12.5878 -2.95153 -15.0668
2054 1 -9.97429 -3.79233 -14.7119 -9.97429 -3.79233 18.9454
11676 1 -7.94474 -4.04034 -15.1813 25.7125 -4.04034 18.476
1032 1 -7.10364 -3.60159 -14.3463 -7.10364 -3.60159 -14.3463
621 1 -6.18483 -4.04719 -15.3654 -6.18483 -4.04719 -15.3654
160 1 -6.10689 -2.92002 -15.3803 -6.10689 -2.92002 -15.3803
696 1 -4.92762 -3.91319 -15.4246 -4.92762 -3.91319 -15.4246
5834 1 -1.99759 -3.52309 -14.5979 -1.99759 -3.52309 -14.5979
8716 1 -0.712927 -3.45783 -15.1782 -0.712927 -3.45783 -15.1782
4094 1 -15.3878 -1.79453 -14.6722 -15.3878 -1.79453 -14.6722
12580 1 -14.2274 -1.95621 -14.3285 -14.2274 -1.95621 -14.3285
15950 1 -13.2814 -1.64 -14.5895 20.3758 -1.64 19.0677
6303 1 -10.4029 -1.44675 -14.2985 -10.4029 -1.44675 19.3588
10037 1 -9.63318 -2.75851 -14.7913 -9.63318 -2.75851 -14.7913
9303 1 -8.74036 -1.92033 -14.0645 24.9169 -1.92033 -14.0645
2110 1 -8.17781 -2.57246 -14.8624 -8.17781 -2.57246 18.7949
5308 1 -7.18756 -1.61232 -15.0207 -7.18756 -1.61232 -15.0207
4345 1 -7.00977 -2.44672 -14.3555 -7.00977 -2.44672 -14.3555
3747 1 -5.00406 -1.66579 -14.0783 -5.00406 -1.66579 19.579
5248 1 -4.92906 -2.53698 -15.0987 -4.92906 -2.53698 -15.0987
2049 1 -3.1136 -2.17864 -14.4445 -3.1136 -2.17864 19.2128
12800 1 -1.06083 -2.37187 -15.1153 -1.06083 -2.37187 -15.1153
11163 1 -0.582316 -1.45349 -14.5696 -0.582316 -1.45349 19.0876
5841 1 -16.7809 -1.14514 -14.3413 -16.7809 -1.14514 -14.3413
2967 1 -15.5992 -0.0420624 -14.9832 -15.5992 -0.0420624 18.674
7160 1 -14.6171 -0.762225 -14.9146 -14.6171 -0.762225 18.7427
12386 1 -12.9454 -0.397037 -14.9185 20.7118 -0.397037 -14.9185
2135 1 -11.7794 -1.21587 -14.9965 -11.7794 -1.21587 18.6607
13678 1 -8.86614 -0.85933 -14.38 -8.86614 -0.85933 -14.38
5740 1 -7.84998 -1.13889 -14.1527 -7.84998 -1.13889 -14.1527
9756 1 -8.04876 -0.757402 -15.4183 25.6085 -34.4147 -15.4183
753 1 -6.65025 -0.40343 -15.0961 -6.65025 -0.40343 -15.0961
86 1 -6.10517 -1.27967 -14.6067 -6.10517 -1.27967 -14.6067
1986 1 -4.32986 -1.34364 -15.4107 -4.32986 -1.34364 -15.4107
6851 1 -5.21791 -0.0265936 -14.3972 -5.21791 -0.0265936 19.2601
5941 1 -4.02556 -0.979691 -14.4541 -4.02556 -0.979691 -14.4541
10370 1 -2.25626 -1.20009 -14.45 -2.25626 -1.20009 19.2072
1119 1 -1.20342 -0.0655919 -15.3118 -1.20342 -0.0655919 -15.3118
3427 1 -15.9101 -15.6584 -13.8653 -15.9101 -15.6584 -13.8653
1065 1 -16.2212 -16.3945 -12.6659 -16.2212 -16.3945 -12.6659
9308 1 -14.4887 -16.3362 -12.8068 19.1686 -16.3362 -12.8068
12986 1 -11.5417 -15.8159 -13.8556 -11.5417 17.8414 -13.8556
11325 1 -12.4873 -15.9424 -13.1108 21.17 -15.9424 20.5465
3110 1 -10.0378 -16.4348 -13.651 -10.0378 -16.4348 20.0063
13367 1 -10.4037 -15.5471 -13.0788 23.2536 18.1102 -13.0788
10044 1 -9.0316 -16.1034 -14.0112 -9.0316 17.5539 -14.0112
1743 1 -9.31181 -15.605 -13.0696 -9.31181 -15.605 -13.0696
1968 1 -6.55879 -16.3714 -12.6635 -6.55879 -16.3714 -12.6635
6769 1 -5.08134 -16.627 -13.3198 -5.08134 -16.627 20.3374
15663 1 -3.36759 -15.9934 -12.9883 30.2897 17.6638 20.6689
3335 1 -1.80476 -15.762 -13.042 -1.80476 -15.762 -13.042
12691 1 -0.669038 -15.4808 -12.8562 32.9882 18.1765 20.8011
16114 1 -0.798518 -16.6195 -13.1406 -0.798518 17.0378 20.5166
1810 1 -15.8879 -14.4461 -13.2816 -15.8879 -14.4461 -13.2816
9236 1 -14.732 -14.9489 -13.7025 18.9253 -14.9489 -13.7025
2672 1 -14.1534 -15.1936 -12.7259 -14.1534 18.4636 -12.7259
7746 1 -13.2508 -14.8927 -13.8203 -13.2508 -14.8927 19.837
13957 1 -12.7023 -14.5484 -12.9584 20.955 19.1089 -12.9584
6436 1 -10.7453 -14.2716 -12.98 -10.7453 19.3857 20.6772
4124 1 -9.64658 -14.2821 -13.8524 -9.64658 19.3751 -13.8524
74 1 -8.42401 -14.7297 -13.889 -8.42401 -14.7297 -13.889
9845 1 -7.66999 -15.3555 -13.3644 25.9873 -15.3555 -13.3644
9119 1 -6.12813 -15.3069 -13.2561 -6.12813 -15.3069 -13.2561
523 1 -6.13481 -14.1957 -13.3086 -6.13481 -14.1957 -13.3086
12371 1 -4.39635 -15.3869 -13.6118 -4.39635 18.2704 -13.6118
14133 1 -5.26425 -14.5409 -12.9358 -5.26425 19.1164 -12.9358
8719 1 -3.1524 -15.1367 -13.9625 -3.1524 -15.1367 -13.9625
9890 1 -3.10347 -14.1815 -12.7688 -3.10347 -14.1815 -12.7688
2126 1 -2.01951 -14.481 -13.1848 -2.01951 -14.481 20.4725
7898 1 -1.35892 -14.9216 -13.9262 -1.35892 18.7357 19.731
7719 1 -0.0467421 -14.579 -13.5179 -0.0467421 19.0782 20.1393
10042 1 -15.116 -13.6588 -13.9712 18.5413 -13.6588 -13.9712
5296 1 -14.7174 -13.7431 -12.8405 -14.7174 19.9142 -12.8405
4402 1 -13.625 -13.8798 -13.313 -13.625 19.7775 -13.313
8850 1 -11.7796 -13.7961 -13.1687 21.8777 -13.7961 -13.1687
1435 1 -10.3607 -13.1639 -13.9582 -10.3607 -13.1639 -13.9582
7824 1 -9.78882 -13.3447 -12.9689 -9.78882 20.3125 20.6883
14378 1 -7.43796 -13.403 -13.583 -7.43796 -13.403 20.0742
9137 1 -6.40206 -13.1348 -13.6829 -6.40206 -13.1348 -13.6829
8261 1 -4.06916 -13.8925 -13.3725 29.5881 -13.8925 -13.3725
9896 1 -3.55341 -12.6568 -13.9008 -3.55341 -12.6568 -13.9008
1665 1 -1.60656 -13.0155 -12.9327 -1.60656 -13.0155 -12.9327
1269 1 -1.16809 -14.002 -12.6603 -1.16809 -14.002 -12.6603
8922 1 -0.410162 -13.1592 -13.8264 -0.410162 -13.1592 -13.8264
499 1 -0.183416 -12.9176 -12.7309 -0.183416 -12.9176 -12.7309
13535 1 -16.4088 -12.5201 -12.9862 17.2484 21.1371 -12.9862
6381 1 -15.1268 -12.2261 -12.9567 -15.1268 21.4311 20.7006
12677 1 -13.3531 -12.1358 -13.534 20.3042 21.5214 -13.534
397 1 -12.6865 -11.7423 -12.8571 -12.6865 -11.7423 -12.8571
2658 1 -11.7755 -12.5291 -13.5649 -11.7755 -12.5291 20.0923
10492 1 -10.6613 -12.1375 -13.4578 22.996 -12.1375 20.1995
5136 1 -9.30587 -12.4971 -13.7302 -9.30587 21.1602 -13.7302
5290 1 -9.08968 -11.3271 -13.3067 -9.08968 -11.3271 -13.3067
1456 1 -7.39612 -12.0454 -12.7827 -7.39612 -12.0454 -12.7827
8018 1 -6.6664 -11.26 -13.0641 -6.6664 22.3972 -13.0641
357 1 -5.67251 -11.779 -13.9897 -5.67251 -11.779 -13.9897
6994 1 -4.74545 -12.5595 -13.8459 -4.74545 -12.5595 19.8114
4386 1 -3.77227 -11.2997 -13.6434 -3.77227 -11.2997 -13.6434
4680 1 -2.53977 -12.4379 -13.5904 -2.53977 21.2194 -13.5904
7279 1 -2.33302 -11.2412 -13.2671 -2.33302 -11.2412 -13.2671
9183 1 -0.921049 -11.821 -13.4144 -0.921049 -11.821 -13.4144
849 1 -16.1973 -10.2826 -12.858 -16.1973 -10.2826 -12.858
11606 1 -14.4399 -9.94368 -13.9782 19.2173 -9.94368 -13.9782
11865 1 -15.4057 -10.9918 -13.5264 18.2516 -10.9918 20.1309
7931 1 -13.2673 -11.0547 -13.6604 -13.2673 22.6025 19.9968
2548 1 -13.6698 -10.231 -12.9587 -13.6698 -10.231 20.6986
6302 1 -11.9691 -10.7057 -12.8021 -11.9691 22.9515 -12.8021
5720 1 -11.157 -10.437 -13.9652 -11.157 23.2202 -13.9652
767 1 -10.2043 -10.811 -13.0931 -10.2043 -10.811 -13.0931
6380 1 -9.14367 -10.1388 -13.1722 -9.14367 -10.1388 -13.1722
1461 1 -7.91063 -10.5379 -13.6346 -7.91063 -10.5379 -13.6346
951 1 -6.95227 -10.2456 -13.0363 -6.95227 -10.2456 -13.0363
1895 1 -4.37519 -9.91044 -13.7087 -4.37519 -9.91044 -13.7087
5990 1 -5.58723 -10.7605 -13.2649 -5.58723 -10.7605 -13.2649
4581 1 -2.22752 -10.1314 -13.0803 -2.22752 -10.1314 -13.0803
10654 1 -0.375358 -10.5617 -13.1969 -0.375358 -10.5617 20.4604
3298 1 -1.22154 -10.3633 -12.7207 -1.22154 -10.3633 20.9365
899 1 -14.4602 -9.17329 -13.0382 -14.4602 -9.17329 -13.0382
9443 1 -12.9473 -8.95445 -12.7237 20.71 -8.95445 -12.7237
1444 1 -11.54 -8.55269 -13.6488 -11.54 -8.55269 -13.6488
11712 1 -10.7772 -9.65107 -12.9279 22.88 -9.65107 20.7294
3061 1 -9.61882 -9.0334 -13.0488 -9.61882 -9.0334 20.6085
1687 1 -7.89049 -9.54064 -13.3652 -7.89049 -9.54064 -13.3652
9599 1 -5.82899 -9.39694 -13.5032 -5.82899 -9.39694 -13.5032
9124 1 -6.99475 -8.91156 -13.4071 -6.99475 -8.91156 -13.4071
7070 1 -4.87995 -9.09134 -12.8863 -4.87995 -9.09134 20.7709
12340 1 -2.94024 -9.05051 -13.6404 -2.94024 -9.05051 20.0168
751 1 -1.72477 -9.39342 -13.8368 -1.72477 -9.39342 -13.8368
8415 1 -1.70793 -9.12272 -12.8074 -1.70793 -9.12272 -12.8074
15275 1 -16.1335 -7.77951 -13.5572 17.5238 -7.77951 20.1
5627 1 -14.9935 -8.32995 -13.0688 -14.9935 25.3273 -13.0688
12159 1 -13.3411 -7.65085 -13.3077 -13.3411 -7.65085 20.3495
10003 1 -10.3857 -8.32173 -13.0492 23.2716 -8.32173 -13.0492
12045 1 -9.13381 -8.01051 -13.3484 24.5234 -8.01051 20.3088
16127 1 -8.12975 -8.11788 -13.2399 25.5275 -8.11788 20.4173
503 1 -6.24451 -7.2462 -13.5721 -6.24451 -7.2462 -13.5721
3004 1 -6.36469 -7.93152 -12.6336 -6.36469 -7.93152 21.0236
5563 1 -5.23261 -7.83975 -12.9291 -5.23261 -7.83975 -12.9291
10070 1 -3.64141 -7.70445 -12.8371 -3.64141 -7.70445 -12.8371
13477 1 -2.1787 -8.01661 -13.3788 -2.1787 25.6406 -13.3788
11182 1 -1.0491 -7.19011 -13.9411 -1.0491 -7.19011 19.7161
13636 1 -1.11186 -7.23675 -12.7199 -1.11186 -7.23675 -12.7199
8500 1 -16.3266 -6.21357 -13.6722 17.3307 -6.21357 -13.6722
8057 1 -14.4724 -6.45579 -13.9429 -14.4724 -6.45579 -13.9429
9927 1 -14.9479 -6.20065 -13.0118 18.7093 -6.20065 -13.0118
5279 1 -13.5113 -5.91291 -13.9335 -13.5113 -5.91291 -13.9335
10661 1 -13.8419 -6.84177 -12.8383 19.8154 -6.84177 20.8189
14615 1 -13.1556 -5.63009 -12.7282 20.5017 -5.63009 20.9291
8524 1 -12.3381 -6.37815 -13.6346 21.3191 -6.37815 -13.6346
1841 1 -10.87 -6.70305 -13.2528 -10.87 -6.70305 -13.2528
3523 1 -9.0667 -6.15248 -12.9037 -9.0667 -6.15248 20.7536
205 1 -7.03815 -6.54957 -13.1073 -7.03815 -6.54957 -13.1073
4172 1 -7.79056 -5.61432 -13.8439 -7.79056 28.0429 -13.8439
5052 1 -6.42469 -5.8395 -13.5132 -6.42469 -5.8395 -13.5132
7366 1 -5.2089 -6.67296 -13.263 -5.2089 -6.67296 20.3943
10764 1 -3.06613 -6.50705 -13.6267 30.5911 -6.50705 20.0306
1702 1 -1.89703 -6.00527 -12.954 -1.89703 -6.00527 -12.954
1135 1 -0.76247 -6.15469 -12.878 -0.76247 -6.15469 -12.878
3974 1 -14.6485 -5.16741 -13.4341 -14.6485 -5.16741 20.2231
4176 1 -13.4631 -4.76254 -13.4275 -13.4631 -4.76254 -13.4275
870 1 -12.2654 -5.23756 -13.1171 -12.2654 -5.23756 -13.1171
13798 1 -11.0711 -5.30858 -13.969 22.5862 28.3487 -13.969
8179 1 -10.3674 -5.02899 -12.9234 -10.3674 -5.02899 20.7338
2146 1 -9.01109 -4.65317 -13.5829 -9.01109 -4.65317 20.0744
570 1 -7.4249 -5.5086 -12.7096 -7.4249 -5.5086 -12.7096
22 1 -7.94737 -4.38801 -13.2028 -7.94737 -4.38801 -13.2028
324 1 -6.84777 -4.39092 -13.1011 -6.84777 -4.39092 -13.1011
1408 1 -4.63435 -5.60172 -13.2703 -4.63435 -5.60172 -13.2703
1590 1 -5.2482 -4.45214 -13.5788 -5.2482 -4.45214 -13.5788
1076 1 -3.58503 -4.49946 -13.1362 -3.58503 -4.49946 -13.1362
1625 1 -2.85401 -5.05665 -13.8733 -2.85401 -5.05665 -13.8733
9950 1 -1.65063 -4.74127 -13.8097 -1.65063 -4.74127 -13.8097
287 1 -1.73438 -4.5158 -12.6683 -1.73438 29.1415 -12.6683
12615 1 -0.238077 -4.8174 -13.8387 -0.238077 28.8399 -13.8387
4527 1 -15.9315 -4.09281 -13.2869 -15.9315 -4.09281 -13.2869
14908 1 -14.2035 -3.11283 -13.4788 19.4538 -3.11283 20.1784
13163 1 -15.1882 -3.55581 -12.6272 18.469 -3.55581 -12.6272
7056 1 -14.0953 -4.19657 -12.7191 -14.0953 -4.19657 20.9381
4452 1 -13.4934 -3.17553 -12.7482 -13.4934 -3.17553 -12.7482
3763 1 -12.9859 -2.88725 -13.8116 -12.9859 -2.88725 19.8457
9678 1 -11.2948 -4.03805 -13.628 22.3624 -4.03805 -13.628
11112 1 -12.5585 -4.03875 -13.4443 21.0988 -4.03875 20.213
14240 1 -10.8959 -3.30509 -12.9117 -10.8959 -3.30509 -12.9117
8616 1 -8.616 -3.17322 -13.856 -8.616 -3.17322 -13.856
12555 1 -9.77712 -3.57235 -13.4221 23.8801 -3.57235 -13.4221
7732 1 -7.33701 -2.84216 -13.0851 -7.33701 -2.84216 20.5721
7275 1 -4.75712 -3.26605 -13.6435 -4.75712 30.3912 20.0138
16068 1 -4.89368 -4.01605 -12.6442 28.7636 -4.01605 -12.6442
6725 1 -3.13082 -2.95416 -13.6143 -3.13082 -2.95416 20.043
7424 1 -1.7779 -3.08828 -13.4342 -1.7779 30.569 20.223
10824 1 -2.5442 -3.88556 -13.2784 -2.5442 -3.88556 20.3789
13161 1 -0.534854 -3.48892 -13.3086 -0.534854 -3.48892 -13.3086
11732 1 -16.6706 -1.69677 -13.1804 16.9866 -1.69677 20.4768
13423 1 -15.315 -2.22368 -13.4465 18.3423 -2.22368 -13.4465
4973 1 -13.5962 -1.5151 -13.3606 -13.5962 -1.5151 -13.3606
1894 1 -11.9721 -1.80903 -13.7704 -11.9721 -1.80903 -13.7704
8224 1 -11.5993 -2.42498 -12.7084 22.0579 -36.0822 -12.7084
15602 1 -9.70093 -2.04902 -12.9039 23.9563 -2.04902 20.7533
11563 1 -7.89751 -1.78533 -12.7944 -7.89751 -1.78533 20.8628
4691 1 -5.94732 -2.54328 -13.5439 -5.94732 -2.54328 -13.5439
7099 1 -6.57798 -1.43125 -13.3186 -6.57798 -1.43125 20.3387
5575 1 -4.04614 -2.02783 -13.5425 -4.04614 -2.02783 -13.5425
7075 1 -2.44291 -2.15259 -13.5988 -2.44291 -2.15259 20.0584
9111 1 -1.14387 -2.1287 -13.3286 -1.14387 -2.1287 -13.3286
10027 1 -16.0392 -0.599712 -12.8368 -16.0392 -0.599712 -12.8368
5094 1 -14.1381 -0.165893 -13.4216 -14.1381 -0.165893 -13.4216
12427 1 -15.4227 -0.735626 -13.9091 18.2346 -0.735626 -13.9091
7670 1 -14.9446 -1.20027 -13.1053 -14.9446 -1.20027 20.5519
5178 1 -12.8369 -0.890652 -12.6911 -12.8369 -0.890652 -12.6911