ITEM: TIMESTEP
9500
ITEM: NUMBER OF ATOMS
16384
ITEM: BOX BOUNDS pp pp pp
-1.6828627036276380e+01 1.6828627036276380e+01
-1.6828627036276380e+01 1.6828627036276380e+01
-1.6828627036276380e+01 1.6828627036276380e+01
ITEM: ATOMS id type x y z xu yu zu
15502 1 -12.4452 -0.0454191 -0.539425 21.212 -0.0454191 -0.539425
2372 1 -14.2781 -16.7982 -16.4584 -14.2781 -16.7982 17.1989
44 1 -15.3984 -15.6885 -15.7209 -15.3984 -15.6885 17.9363
74 1 -13.3997 -15.8805 -15.9695 -13.3997 -15.8805 -15.9695
7833 1 -12.7959 -16.7363 -16.5165 -12.7959 16.921 17.1408
8662 1 -9.69731 -15.8293 -15.3394 23.9599 -15.8293 -15.3394
5551 1 -11.4337 -16.5046 -15.7061 -11.4337 17.1527 -15.7061
6369 1 -8.86748 -16.1202 -16.3989 -8.86748 17.537 17.2584
4947 1 -2.72005 -15.6859 -15.4566 -2.72005 17.9714 -15.4566
2354 1 -1.45976 -15.4363 -15.9107 -1.45976 -15.4363 17.7465
11999 1 -1.09872 -16.3479 -16.8107 -1.09872 -16.3479 16.8465
13311 1 -12.778 -14.9743 -0.133436 -12.778 18.683 -0.133436
3581 1 -14.0413 -14.9224 -16.2738 -14.0413 -14.9224 17.3835
6190 1 -14.0891 -14.7675 -15.1817 -14.0891 18.8898 18.4755
8965 1 -11.634 -14.7466 -15.2775 22.0232 -14.7466 -15.2775
234 1 -12.3879 -13.8864 -15.8637 -12.3879 -13.8864 -15.8637
7734 1 -11.1518 -15.6808 -16.4751 -11.1518 17.9764 17.1822
9137 1 -9.48265 -14.5499 -15.2624 -9.48265 -14.5499 -15.2624
472 1 -8.02007 -14.8092 -16.487 -8.02007 -14.8092 -16.487
14517 1 -12.6827 -2.47318 -0.244428 20.9746 -2.47318 -0.244428
8868 1 -5.89338 -16.1389 -16.1291 -5.89338 -16.1389 -16.1291
6277 1 -7.02881 -14.4769 -16.705 -7.02881 19.1804 16.9522
11107 1 -4.77847 -14.9309 -16.178 28.8788 -14.9309 17.4792
5641 1 -3.59975 -14.6883 -15.8128 -3.59975 18.969 -15.8128
13665 1 -0.465177 -14.9608 -16.41 -0.465177 18.6965 -16.41
9896 1 -1.79552 -14.3305 -15.605 -1.79552 -14.3305 -15.605
4387 1 -15.3831 -13.3493 -16.0256 -15.3831 20.308 17.6317
15615 1 -13.7633 -13.4398 -16.3377 -13.7633 20.2175 17.3195
1812 1 -13.2917 -13.2601 -15.4447 -13.2917 -13.2601 -15.4447
11112 1 -14.3307 -12.3487 -15.9876 19.3266 -12.3487 17.6696
12580 1 -16.7874 -8.53286 -12.8992 -16.7874 -8.53286 -12.8992
11190 1 -10.8444 -13.1039 -16.2454 -10.8444 -13.1039 17.4119
13280 1 -16.6661 -10.1974 -1.75685 16.9912 -10.1974 -1.75685
2629 1 -9.11318 -13.8075 -16.475 -9.11318 -13.8075 17.1823
1535 1 -7.86416 -13.0787 -16.0528 -7.86416 -13.0787 17.6045
4817 1 -7.08073 -13.8073 -15.0568 -7.08073 19.8499 -15.0568
5027 1 -6.01139 -13.9249 -16.4149 -6.01139 19.7323 -16.4149
6275 1 -5.04856 -13.4008 -15.6205 -5.04856 -13.4008 -15.6205
11680 1 -3.6079 -13.6629 -16.049 -3.6079 -13.6629 17.6082
13447 1 -2.38987 -13.4164 -15.3812 31.2674 20.2409 -15.3812
5391 1 -9.70432 -2.1964 -0.022837 -9.70432 -2.1964 -0.022837
6944 1 -1.57851 -12.6484 -16.0852 -1.57851 21.0089 17.5721
14507 1 -0.231295 -14.0093 -16.6673 -0.231295 -14.0093 -16.6673
4128 1 -2.74005 -16.3808 -16.7828 -2.74005 17.2764 -16.7828
15399 1 -14.2462 -11.3113 -16.7013 19.4111 22.346 16.9559
5101 1 -16.0547 -12.3074 -15.3027 -16.0547 -12.3074 -15.3027
8215 1 -12.1861 -12.8044 -16.146 -12.1861 20.8529 17.5112
3722 1 -11.0032 -11.8226 -15.9438 -11.0032 -11.8226 17.7135
2742 1 -9.3112 -12.6995 -16.0456 -9.3112 -12.6995 17.6116
6529 1 -6.93481 -12.4251 -15.5951 -6.93481 -12.4251 18.0621
1065 1 -13.1842 -16.7777 -11.369 -13.1842 -16.7777 -11.369
7644 1 -3.93755 -11.8853 -16.2263 -3.93755 21.772 17.4309
8255 1 -2.99177 -11.6227 -15.2267 -2.99177 -11.6227 -15.2267
3683 1 -1.8647 -11.4015 -15.6121 -1.8647 -11.4015 18.0451
9890 1 -0.158112 -11.4301 -16.5949 -0.158112 -11.4301 -16.5949
1830 1 -16.2364 -9.73516 -16.4775 17.4208 -9.73516 -16.4775
12045 1 -14.7603 -11.1377 -15.8104 18.897 -11.1377 17.8469
1536 1 -12.6231 -10.1304 -15.5716 -12.6231 -10.1304 -15.5716
2341 1 -13.4158 -11.5768 -16.1141 -13.4158 -11.5768 17.5432
9483 1 -11.2745 -10.1383 -16.6787 -11.2745 -10.1383 -16.6787
6523 1 -10.1748 -10.4233 -16.0572 -10.1748 23.234 17.6001
4859 1 -8.65219 -11.2864 -16.3124 -8.65219 22.3708 -16.3124
1305 1 -8.23223 -10.1103 -16.1403 -8.23223 -10.1103 -16.1403
9790 1 -6.89506 -10.1107 -16.7984 -6.89506 -10.1107 -16.7984
2426 1 -5.61607 -11.443 -15.0127 -5.61607 -11.443 18.6445
9935 1 -6.10395 -11.1794 -16.5472 27.5533 -11.1794 17.11
6566 1 -4.96464 -10.4835 -16.2866 -4.96464 23.1738 17.3706
6378 1 -3.07266 -11.1684 -16.1883 -3.07266 -11.1684 17.4689
8558 1 -1.64975 -9.87933 -16.1793 -1.64975 -9.87933 -16.1793
16312 1 -0.669082 -10.1945 -16.1446 -0.669082 23.4628 17.5127
15526 1 -16.428 -9.46668 -15.5049 17.2292 24.1906 18.1524
9190 1 -14.8638 -9.9892 -16.5235 18.7935 -9.9892 17.1337
5025 1 -15.148 -8.78631 -16.4765 -15.148 -8.78631 -16.4765
603 1 -13.4699 -8.8899 -15.9561 -13.4699 -8.8899 -15.9561
1438 1 -11.2823 -9.93497 -15.1992 -11.2823 -9.93497 -15.1992
729 1 -12.2052 -8.67092 -16.5561 -12.2052 -8.67092 17.1011
10949 1 -10.906 -8.94578 -15.9446 22.7513 -8.94578 17.7127
12503 1 -9.29812 -8.80934 -16.2483 24.3591 24.8479 -16.2483
7136 1 -6.01959 -0.0940601 -7.45898 -6.01959 -0.0940601 -7.45898
9058 1 -6.02516 -9.59779 -16.0258 27.6321 -9.59779 -16.0258
8503 1 -6.72926 -8.67783 -15.8985 -6.72926 -8.67783 -15.8985
1895 1 -5.17816 -8.27998 -15.794 -5.17816 -8.27998 -15.794
13287 1 -4.58369 -9.27735 -16.4922 -4.58369 -9.27735 -16.4922
985 1 -12.935 -16.6111 -0.0727696 -12.935 -16.6111 -0.0727696
5457 1 -11.158 -0.054973 -7.89944 -11.158 -0.054973 -7.89944
5181 1 -1.70895 -8.16805 -16.5185 -1.70895 25.4892 -16.5185
15631 1 -16.8121 -7.81874 -15.2954 16.8451 25.8385 18.3618
4034 1 -14.6459 -7.63431 -15.4643 -14.6459 -7.63431 18.1929
5102 1 -9.11336 -16.7574 -11.3057 -9.11336 16.8999 -11.3057
5702 1 -13.0974 -7.52066 -16.1822 -13.0974 26.1366 -16.1822
1175 1 -11.9387 -6.92127 -16.6836 -11.9387 -6.92127 -16.6836
7239 1 -10.7121 -7.85894 -16.144 -10.7121 25.7983 17.5133
14402 1 -7.48709 -7.84501 -16.0346 26.1702 -7.84501 17.6227
4995 1 -7.36434 -7.74172 -14.6904 -7.36434 -7.74172 -14.6904
3130 1 -5.8127 -7.2352 -15.9625 -5.8127 -7.2352 17.6947
1481 1 -3.65575 -8.15432 -16.3738 -3.65575 -8.15432 -16.3738
2250 1 -2.22411 -8.03867 -15.4775 -2.22411 -8.03867 18.1798
4373 1 -0.201358 -7.33742 -15.8879 -0.201358 -7.33742 -15.8879
1894 1 -15.8333 -6.09765 -15.8142 -15.8333 -6.09765 -15.8142
1462 1 -0.460919 -1.28801 -0.0757631 -0.460919 -1.28801 -0.0757631
2572 1 -14.4801 -6.50652 -16.1053 -14.4801 -6.50652 17.552
8616 1 -12.6393 -6.23808 -16.0044 -12.6393 -6.23808 -16.0044
1639 1 -9.43715 -6.63233 -15.5751 -9.43715 -6.63233 -15.5751
14116 1 -9.10315 -6.22724 -16.7757 24.5541 27.43 -16.7757
13679 1 -13.5125 -0.0397081 -11.8405 20.1448 -0.0397081 -11.8405
2185 1 -6.13295 -6.06686 -16.0585 -6.13295 -6.06686 17.5988
8505 1 -5.0204 -5.77988 -16.7625 -5.0204 -5.77988 -16.7625
13632 1 -4.59868 -6.78432 -16.455 -4.59868 -6.78432 -16.455
5386 1 -2.88609 -5.28732 -16.1337 -2.88609 28.3699 -16.1337
1152 1 -2.11932 -6.20291 -15.6463 -2.11932 -6.20291 18.011
11978 1 -0.827339 -5.88271 -15.6963 -0.827339 -5.88271 17.9609
7604 1 -9.32624 -16.4192 -2.17318 -9.32624 17.238 -2.17318
791 1 -16.0167 -4.87517 -16.0125 -16.0167 -4.87517 -16.0125
4789 1 -14.3642 -4.55222 -16.0058 -14.3642 -4.55222 -16.0058
7374 1 -13.7511 -5.79115 -16.5002 -13.7511 27.8661 17.1571
4648 1 -11.6936 -5.28022 -15.8847 -11.6936 -5.28022 -15.8847
11517 1 -10.4385 -5.26906 -16.156 23.2188 -5.26906 17.5012
3881 1 -8.43286 -5.7491 -15.6183 -8.43286 -5.7491 18.039
2004 1 -8.14144 -5.43658 -16.8024 -8.14144 -5.43658 -16.8024
8203 1 -6.49187 -4.59263 -14.9946 -6.49187 -4.59263 18.6626
3832 1 -5.07241 -4.27932 -16.7124 -5.07241 -4.27932 16.9449
11421 1 -1.54775 -5.12028 -16.0255 32.1095 -5.12028 17.6318
7445 1 -0.117587 -12.1822 -9.38326 -0.117587 21.4751 24.274
6884 1 -8.57463 -6.85365 -0.138249 -8.57463 -6.85365 -0.138249
9864 1 -12.6729 -3.66251 -15.4851 -12.6729 -3.66251 -15.4851
14411 1 -5.97067 -16.7444 -2.39769 -5.97067 16.9129 -2.39769
5616 1 -12.0227 -3.18862 -16.3761 -12.0227 -3.18862 -16.3761
4724 1 -9.93323 -3.936 -15.6147 -9.93323 -3.936 -15.6147
13918 1 -7.11235 -0.385766 -0.123627 -7.11235 -0.385766 -0.123627
3070 1 -8.70873 -3.94629 -15.89 -8.70873 -3.94629 17.7672
1589 1 -8.01094 -2.22067 -15.1147 -8.01094 -2.22067 -15.1147
4597 1 -7.44864 -4.54069 -16.4493 -7.44864 -4.54069 -16.4493
4321 1 -5.97158 -3.55739 -16.3049 -5.97158 -3.55739 -16.3049
13836 1 -4.77852 -3.05655 -16.0035 28.8787 -3.05655 -16.0035
1690 1 -3.50158 -4.35901 -16.1551 -3.50158 -4.35901 -16.1551
4109 1 -1.52524 -4.04512 -16.4246 -1.52524 -4.04512 -16.4246
6916 1 -15.4559 -2.40996 -15.7395 18.2014 -2.40996 17.9178
6473 1 -16.0874 -1.27466 -16.0339 -16.0874 -1.27466 -16.0339
8760 1 -13.959 -2.93587 -16.1613 19.6983 -2.93587 -16.1613
8128 1 -13.0035 -2.33117 -16.4952 -13.0035 -2.33117 17.1621
5623 1 -11.2622 -1.98477 -16.0842 -11.2622 -1.98477 -16.0842
2927 1 -9.01675 -2.4426 -16.0026 -9.01675 -36.0999 17.6547
10168 1 -7.47713 -3.31759 -16.6149 26.1801 -3.31759 17.0424
9810 1 -13.8408 -0.668386 -6.18365 19.8164 -34.3256 -6.18365
6509 1 -6.12123 -2.0394 -16.324 -6.12123 -2.0394 17.3333
7424 1 -4.04307 -1.90146 -15.1144 -4.04307 31.7558 18.5429
5536 1 -1.85851 -0.524261 -14.2194 -1.85851 -0.524261 -14.2194
3821 1 -13.5382 -0.0596049 -15.2454 -13.5382 -0.0596049 18.4119
4974 1 -3.27844 -2.56391 -15.7705 -3.27844 -2.56391 -15.7705
3802 1 -1.80803 -3.10708 -15.2604 -1.80803 -3.10708 18.3968
5383 1 -2.73171 -1.69154 -15.6133 -2.73171 -1.69154 -15.6133
1093 1 -1.10998 -2.66229 -16.4065 -1.10998 -2.66229 -16.4065
9635 1 -0.339964 -2.57528 -4.38875 -0.339964 -2.57528 -4.38875
2597 1 -13.8731 -1.38195 -15.5204 -13.8731 -1.38195 18.1368
7877 1 -15.1845 -0.921698 -15.592 -15.1845 -0.921698 18.0653
2265 1 -10.0889 -16.5145 -10.7823 -10.0889 -16.5145 22.8749
356 1 -13.5464 -0.559746 -16.4262 -13.5464 -0.559746 -16.4262
6644 1 -2.92518 -0.358902 -7.82704 -2.92518 -0.358902 -7.82704
6485 1 -10.9677 -0.957311 -16.1659 -10.9677 32.6999 17.4914
5951 1 -9.48714 -1.12967 -16.009 -9.48714 -1.12967 -16.009
4345 1 -7.0528 -1.6777 -15.7218 -7.0528 -1.6777 -15.7218
15013 1 -6.74111 -0.332876 -15.4037 -6.74111 -0.332876 18.2536
2505 1 -4.69636 -1.25009 -15.6327 -4.69636 -1.25009 18.0246
6646 1 -3.34534 -0.916818 -16.4202 -3.34534 -0.916818 17.237
7075 1 -1.92576 -0.418228 -15.8889 -1.92576 -0.418228 17.7683
13563 1 -0.151911 -1.09328 -15.4365 -0.151911 -1.09328 -15.4365
10495 1 -0.328446 -8.19733 -10.2744 -0.328446 -8.19733 23.3829
13065 1 -16.1595 -15.5242 -14.6508 -16.1595 18.1331 -14.6508
15107 1 -15.0689 -15.4159 -13.7261 18.5884 -15.4159 19.9311
15029 1 -13.7138 -16.4429 -14.2968 -13.7138 -16.4429 19.3605
13934 1 -12.5008 -15.2946 -15.2276 -12.5008 18.3626 -15.2276
4054 1 -10.3854 -15.5793 -13.926 -10.3854 -15.5793 19.7312
462 1 -8.54898 -15.9758 -14.777 -8.54898 -15.9758 -14.777
10161 1 -7.28461 -15.8533 -14.9355 26.3726 -15.8533 -14.9355
2561 1 -5.76622 -15.7393 -14.8051 -5.76622 -15.7393 18.8522
7538 1 -4.50671 -15.6136 -14.9842 -4.50671 18.0437 18.6731
5700 1 -4.40492 -16.3953 -13.8185 -4.40492 17.2619 -13.8185
11385 1 -2.22889 -1.25577 -0.0948697 -2.22889 -1.25577 -0.0948697
9630 1 -3.43153 -15.7786 -14.3426 -3.43153 -15.7786 -14.3426
4680 1 -1.30561 -15.7012 -14.6407 -1.30561 17.9561 -14.6407
80 1 -11.8017 -16.4815 -4.62525 -11.8017 17.1758 -4.62525
2070 1 -16.0983 -13.8775 -1.74269 -16.0983 -13.8775 -1.74269
3423 1 -0.126804 -16.115 -14.1766 -0.126804 -16.115 19.4807
1108 1 -16.7581 -14.0871 -15.1744 -16.7581 -14.0871 -15.1744
7489 1 -8.30293 -0.573491 -16.5527 -8.30293 -0.573491 17.1045
2624 1 -14.058 -15.4976 -14.0689 -14.058 -15.4976 19.5883
4219 1 -13.7475 -13.9851 -14.3441 -13.7475 19.6722 -14.3441
14931 1 -12.7048 -14.4059 -14.3539 20.9524 19.2514 19.3033
15758 1 -10.8343 -14.6367 -14.0642 22.823 19.0206 -14.0642
1497 1 -6.98284 -14.7563 -14.1112 -6.98284 -14.7563 -14.1112
1743 1 -8.52744 -14.8463 -15.5162 -8.52744 -14.8463 -15.5162
1723 1 -5.81961 -14.0084 -15.3064 -5.81961 -14.0084 -15.3064
9383 1 -4.32838 -14.4376 -15.0104 -4.32838 -14.4376 -15.0104
3551 1 -2.30107 -14.8724 -14.308 -2.30107 -14.8724 -14.308
12351 1 -1.05009 -14.8399 -14.1684 32.6072 18.8174 -14.1684
11865 1 -15.9602 -13.1066 -14.5375 17.697 -13.1066 19.1197
1431 1 -14.8405 -13.4192 -14.6325 -14.8405 -13.4192 -14.6325
7042 1 -13.1979 -12.6231 -13.8283 -13.1979 21.0341 19.8289
7530 1 -11.4275 -13.8636 -14.735 -11.4275 -13.8636 18.9223
7456 1 -10.392 -14.0096 -15.3959 -10.392 19.6477 -15.3959
5923 1 -10.7842 -12.8453 -15.1066 -10.7842 -12.8453 -15.1066
934 1 -9.3711 -13.7552 -14.1615 -9.3711 -13.7552 -14.1615
13813 1 -9.59157 -12.9375 -14.8088 24.0657 20.7198 -14.8088
3127 1 -8.17924 -13.0937 -14.723 -8.17924 -13.0937 18.9342
597 1 -6.41619 -13.0202 -14.5391 -40.0734 -13.0202 19.1181
4689 1 -5.31763 -12.7097 -14.7759 -5.31763 -12.7097 -14.7759
357 1 -4.174 -13.427 -14.1029 -4.174 -13.427 -14.1029
9183 1 -1.62173 -13.0365 -14.6012 -1.62173 -13.0365 -14.6012
5990 1 -2.97385 -13.3454 -14.5629 -2.97385 -13.3454 -14.5629
148 1 -0.0850424 -13.7578 -14.8382 -0.0850424 -13.7578 -14.8382
13271 1 -14.9115 -10.7681 -14.011 18.7457 22.8892 -14.011
10172 1 -14.4973 -12.2665 -14.4743 19.16 -12.2665 -14.4743
11856 1 -13.8578 -10.7059 -14.7884 19.7995 -10.7059 18.8688
4665 1 -11.9739 -12.4809 -14.34 -11.9739 21.1764 -14.34
1435 1 -12.9105 -11.9517 -15.1895 -12.9105 -11.9517 -15.1895
2261 1 -11.7243 -11.4594 -15.1112 -11.7243 -11.4594 18.5461
7848 1 -9.82772 -11.9698 -14.8523 -9.82772 21.6874 18.8049
9435 1 -8.38748 -11.566 -15.0965 25.2698 -11.566 -15.0965
733 1 -6.68367 -10.9171 -15.3384 -6.68367 -10.9171 -15.3384
951 1 -6.51166 -11.443 -14.2122 -6.51166 -11.443 -14.2122
8173 1 -3.76424 -12.6769 -15.462 -3.76424 20.9804 18.1953
8217 1 -0.891749 -12.1659 -15.2691 -0.891749 -12.1659 -15.2691
2548 1 -15.9338 -11.106 -15.3816 -15.9338 -11.106 18.2757
8786 1 -15.5397 -9.8599 -14.221 18.1176 -9.8599 -14.221
5986 1 -14.3775 -9.91212 -15.602 -14.3775 -9.91212 -15.602
5503 1 -11.5874 -10.5718 -14.2126 -11.5874 23.0854 -14.2126
1761 1 -10.2951 -11.0077 -14.8959 -10.2951 -11.0077 -14.8959
1802 1 -8.98357 -10.4696 -15.2293 -8.98357 -10.4696 -15.2293
2214 1 -5.38672 -9.97954 -14.7554 -5.38672 -9.97954 18.9018
1524 1 -4.34235 -11.5003 -14.8136 -4.34235 -11.5003 -14.8136
1537 1 -4.14504 -10.4044 -14.0951 -4.14504 -10.4044 -14.0951
12016 1 -1.87717 -10.5051 -14.6741 -1.87717 -10.5051 18.9831
995 1 -0.874963 -11.2854 -14.7397 -0.874963 -11.2854 -14.7397
933 1 -2.7494 -0.197229 -0.288122 -2.7494 -0.197229 -0.288122
12056 1 -15.4479 -9.63689 -15.2404 -15.4479 -9.63689 18.4169
6982 1 -13.1744 -9.0557 -14.686 -13.1744 -9.0557 18.9713
15275 1 -12.1764 -9.46829 -14.6618 21.4808 -9.46829 18.9955
14478 1 -10.0094 -8.95033 -13.4414 23.6478 24.7069 -13.4414
480 1 -10.2676 -9.77599 -14.8619 -10.2676 -9.77599 -14.8619
11538 1 -8.74807 -9.55587 -13.8363 24.9092 -9.55587 19.8209
741 1 -9.38309 -8.65698 -15.0417 -9.38309 -8.65698 -15.0417
1293 1 -7.66904 -9.71452 -15.2313 -7.66904 -9.71452 -15.2313
4715 1 -8.20651 -8.44637 -14.3954 -8.20651 25.2109 -14.3954
11584 1 -6.36912 -8.24699 -14.7123 -6.36912 -8.24699 18.945
10054 1 -4.29912 -9.16914 -15.25 -4.29912 -9.16914 -15.25
310 1 -3.61869 -10.2462 -15.4357 -3.61869 -10.2462 -15.4357
7430 1 -2.86757 -9.27373 -15.9185 -2.86757 -9.27373 17.7388
10259 1 -3.27394 -8.50753 -14.8131 -3.27394 -8.50753 -14.8131
8415 1 -1.74499 -9.46895 -15.1066 -1.74499 -9.46895 -15.1066
14489 1 -0.209867 -10.2655 -14.6438 -0.209867 23.3918 19.0134
4007 1 -16.3591 -8.7375 -14.3774 -16.3591 -8.7375 19.2798
6319 1 -15.4533 -7.18262 -14.7504 -15.4533 26.4746 18.9068
10724 1 -14.2825 -8.39849 -14.6323 -14.2825 -8.39849 19.0249
2010 1 -11.9974 -8.03121 -15.6985 -11.9974 -8.03121 -15.6985
6334 1 -13.9455 -7.25586 -14.3517 -13.9455 -7.25586 19.3056
1912 1 -12.7146 -7.3125 -15.0567 -12.7146 -7.3125 -15.0567
12522 1 -11.6809 -7.26771 -14.5568 -11.6809 -7.26771 -14.5568
192 1 -11.5626 -8.24365 -14.2892 -11.5626 -8.24365 -14.2892
4978 1 -10.3563 -7.51754 -14.1293 -10.3563 -7.51754 -14.1293
1843 1 -8.72976 -7.1295 -14.7585 -8.72976 -7.1295 -14.7585
5155 1 -6.94333 -7.05289 -13.7424 -6.94333 26.6044 -13.7424
13517 1 -5.34486 -7.39985 -14.6749 -5.34486 26.2574 -14.6749
2324 1 -1.43161 -7.46587 -14.9544 -1.43161 -7.46587 18.7029
7070 1 -0.712087 -8.69943 -15.1243 -0.712087 -8.69943 18.533
12159 1 -16.2217 -7.18551 -13.9261 -16.2217 -7.18551 19.7311
15950 1 -16.6368 -6.05546 -14.795 17.0205 -6.05546 18.8623
3051 1 -13.5899 -6.0513 -15.2574 -13.5899 -6.0513 18.3999
3029 1 -15.487 -5.60473 -14.9726 -15.487 -5.60473 18.6847
2398 1 -13.5293 -5.51671 -14.2779 -13.5293 -5.51671 19.3793
2054 1 -10.2618 -5.86718 -14.649 -10.2618 -5.86718 19.0083
8056 1 -8.63639 -5.64504 -14.496 -8.63639 -5.64504 19.1613
12190 1 -7.82985 -6.81938 -16.4003 -7.82985 -6.81938 17.2569
2873 1 -7.24666 -5.60303 -15.3706 -7.24666 -5.60303 18.2866
4172 1 -6.40944 -7.01175 -15.1825 -6.40944 26.6455 -15.1825
5320 1 -4.91482 -6.36637 -14.7376 -4.91482 -6.36637 -14.7376
6214 1 -6.08492 -7.43607 -13.2341 -6.08492 -7.43607 20.4232
9002 1 -3.51062 -7.30385 -15.3674 -3.51062 -7.30385 -15.3674
15143 1 -2.81034 -6.24488 -14.5737 -2.81034 -6.24488 19.0835
7670 1 -15.8532 -5.1002 -13.9164 -15.8532 -5.1002 19.7409
9678 1 -14.7867 -4.38698 -14.595 18.8706 -4.38698 -14.595
8921 1 -13.1003 -4.70086 -15.1964 -13.1003 -4.70086 -15.1964
8524 1 -13.5054 -3.96797 -13.6606 20.1519 -3.96797 -13.6606
9266 1 -12.1723 -6.23119 -14.5951 21.485 -6.23119 -14.5951
16305 1 -9.44967 -5.21318 -15.078 -9.44967 -5.21318 18.5793
14832 1 -11.0564 -6.3598 -15.5915 -11.0564 -6.3598 18.0657
1975 1 -10.6295 -5.45045 -13.5904 -10.6295 -5.45045 -13.5904
914 1 -7.72704 -4.90591 -14.6357 -7.72704 -4.90591 -14.6357
1408 1 -5.76324 -5.06467 -13.8823 -5.76324 -5.06467 -13.8823
696 1 -7.0788 -4.66905 -13.8747 -7.0788 -4.66905 -13.8747
12350 1 -4.20346 -5.14447 -15.6923 -4.20346 28.5128 -15.6923
16068 1 -3.86928 -6.31708 -14.7724 29.788 -6.31708 -14.7724
573 1 -3.29318 -4.85009 -14.5188 -3.29318 -4.85009 -14.5188
11717 1 -1.56703 -5.46878 -14.5942 -1.56703 -5.46878 -14.5942
10574 1 -2.43435 -4.17395 -14.8532 -2.43435 -4.17395 18.804
6304 1 -0.06328 -5.30167 -14.3245 -0.06328 28.3556 19.3328
4178 1 -16.1632 -4.36123 -15.0763 -16.1632 -4.36123 18.581
4005 1 -14.9607 -3.43998 -15.4314 -14.9607 -3.43998 18.2258
15893 1 -13.838 -3.55498 -14.7651 -13.838 -3.55498 18.8922
5178 1 -11.267 -3.26849 -15.3515 -11.267 -3.26849 -15.3515
13904 1 -12.3235 -3.59419 -14.3629 -12.3235 -3.59419 -14.3629
8744 1 -10.8046 -3.73103 -14.3785 22.8527 -3.73103 -14.3785
15923 1 -9.16232 -4.07058 -14.2176 24.4949 -4.07058 19.4396
2264 1 -9.37968 -2.67336 -15.0438 -9.37968 -2.67336 18.6134
9756 1 -7.99295 -3.56835 -14.6372 25.6643 -37.2256 -14.6372
10958 1 -6.33269 -3.57745 -14.1076 -6.33269 -3.57745 19.5496
7703 1 -7.30585 -3.00524 -15.5908 -7.30585 -3.00524 18.0664
5308 1 -5.72968 -3.75769 -15.0631 -5.72968 -3.75769 -15.0631
1648 1 -4.34099 -3.5807 -14.522 -4.34099 -3.5807 -14.522
13501 1 -3.01524 -3.3368 -15.1535 -3.01524 -3.3368 -15.1535
160 1 -2.22931 -2.27081 -14.3903 -2.22931 -2.27081 -14.3903
2049 1 -0.636128 -3.96188 -15.2143 -0.636128 -3.96188 18.443
9060 1 -16.0022 -2.53111 -14.292 17.6551 -2.53111 -14.292
4094 1 -14.2894 -2.48382 -14.7584 -14.2894 -2.48382 -14.7584
266 1 -15.2201 -2.73098 -13.4059 -15.2201 -2.73098 -13.4059
4082 1 -13.2274 -2.14695 -14.4998 -13.2274 -2.14695 -14.4998
9221 1 -10.4154 -2.34633 -15.4355 -10.4154 -2.34633 -15.4355
12555 1 -11.3195 -0.88937 -14.868 22.3378 -0.88937 -14.868
13282 1 -8.54309 -1.22836 -14.9772 25.1142 -1.22836 -14.9772
6725 1 -5.52427 -2.70521 -15.3332 -5.52427 -2.70521 18.324
7325 1 -5.08398 -1.70938 -14.7862 -5.08398 -1.70938 18.871
4205 1 -4.41719 -2.44445 -13.9874 -4.41719 31.2128 -13.9874
5765 1 -0.598269 -2.22834 -15.4015 -0.598269 -2.22834 -15.4015
13191 1 -0.360735 -2.76647 -14.3982 -0.360735 -2.76647 19.259
4875 1 -15.6724 -0.792742 -14.0039 -15.6724 -0.792742 -14.0039
8155 1 -14.8182 -1.20447 -13.3284 -14.8182 -1.20447 20.3289
7125 1 -13.5708 -0.836648 -14.0286 -13.5708 -0.836648 19.6287
10902 1 -16.4203 -3.56018 -9.30868 17.2369 -3.56018 24.3486
2691 1 -12.2109 -1.58433 -15.2557 -12.2109 -35.2416 18.4015
22 1 -10.0893 -0.892633 -14.7276 -10.0893 -0.892633 -14.7276
9395 1 -7.31065 -1.06933 -14.5982 26.3466 -1.06933 -14.5982
11530 1 -2.29433 -3.45983 -16.6748 -2.29433 -3.45983 16.9824
4470 1 -5.68332 -0.823697 -15.8642 -5.68332 -0.823697 -15.8642
13627 1 -6.17915 -1.78875 -14.4567 -6.17915 -1.78875 -14.4567
10119 1 -16.5005 -0.804254 -5.12703 17.1567 -0.804254 -5.12703
324 1 -3.31079 -1.11349 -14.7252 -3.31079 -1.11349 -14.7252
46 1 -1.44646 -1.52028 -15.4041 -1.44646 -1.52028 -15.4041
6625 1 -16.285 -16.2372 -12.7511 -16.285 17.42 20.9062
8046 1 -14.3058 -15.8618 -12.3206 -14.3058 17.7954 21.3367
3063 1 -12.802 -16.4647 -13.5821 -12.802 -16.4647 20.0752
2851 1 -11.6775 -16.4022 -14.6073 -11.6775 -16.4022 19.0499
930 1 -11.8496 -15.7179 -13.6884 -11.8496 -15.7179 -13.6884
9818 1 -10.4427 -16.5727 -13.3339 23.2146 -16.5727 -13.3339
8374 1 -9.25344 -16.7289 -12.735 -9.25344 -16.7289 -12.735
16382 1 -7.03492 -16.1275 -13.8406 -7.03492 17.5297 -13.8406
13962 1 -6.6791 -15.8202 -12.58 26.9782 -15.8202 -12.58
7646 1 -8.26162 -15.8331 -13.6575 -8.26162 17.8242 19.9998
773 1 -5.47415 -15.401 -13.5087 -5.47415 -15.401 -13.5087
6349 1 -4.00492 -15.9181 -12.7622 -4.00492 17.7392 -12.7622
14054 1 -2.76817 -16.1436 -13.0999 -2.76817 17.5136 -13.0999
9433 1 -3.13164 -15.0918 -12.4488 -3.13164 -15.0918 -12.4488
7307 1 -9.52773 -12.2679 -0.0473028 -9.52773 21.3894 -0.0473028
1814 1 -1.96243 -15.0682 -13.3186 -1.96243 -15.0682 -13.3186
3649 1 -15.8898 -14.39 -13.6834 -15.8898 -14.39 19.9738
8100 1 -13.9738 -14.5955 -12.6684 -47.6311 19.0618 20.9888
2429 1 -15.2581 -15.2278 -12.6392 -15.2581 -15.2278 21.018
5639 1 -12.9613 -14.3739 -13.0329 -12.9613 19.2834 -13.0329
828 1 -11.4436 -14.2669 -13.2237 -11.4436 -14.2669 -13.2237
124 1 -10.3099 -14.2982 -13.2273 -10.3099 -14.2982 -13.2273
523 1 -8.87952 -14.7984 -14.0143 -8.87952 -14.7984 -14.0143
5172 1 -8.70638 -15.0206 -12.5511 -8.70638 -15.0206 -12.5511
13952 1 -7.58667 -14.2724 -13.3554 -7.58667 19.3849 -13.3554
1925 1 -3.50708 -14.9969 -13.7224 -3.50708 -14.9969 -13.7224
11648 1 -5.91927 -14.5657 -13.9391 -5.91927 -14.5657 19.7182
6218 1 -0.95001 -15.2714 -12.976 -0.95001 18.3858 20.6813
12935 1 -15.9655 -13.2666 -12.9359 17.6917 -13.2666 -12.9359
767 1 -14.3568 -13.6206 -13.0219 -14.3568 -13.6206 -13.0219
1290 1 -14.0832 -12.3005 -13.1858 -14.0832 -12.3005 -13.1858
13957 1 -11.8444 -12.935 -13.2385 21.8128 20.7223 -13.2385
1251 1 -10.2176 -12.6876 -13.6285 -10.2176 20.9696 -13.6285
10676 1 -7.89455 -12.3062 -13.5134 -7.89455 -12.3062 -13.5134
4147 1 -7.29546 -13.1729 -13.515 -7.29546 20.4843 -13.515
3131 1 -6.48978 -12.0841 -13.1106 -6.48978 -12.0841 -13.1106
8402 1 -5.03406 -13.7998 -13.7329 -5.03406 -13.7998 -13.7329
1016 1 -5.11846 -12.2914 -13.8382 -5.11846 -12.2914 -13.8382
2126 1 -3.97805 -13.8279 -13.0111 -3.97805 -13.8279 20.6462
4720 1 -2.42332 -13.928 -13.695 -2.42332 19.7292 -13.695
2710 1 -2.11921 -12.865 -13.2531 -2.11921 -12.865 20.4042
13584 1 -1.33693 -13.8207 -13.8737 -1.33693 19.8366 -13.8737
11606 1 -16.0496 -11.9703 -13.0973 17.6077 -11.9703 -13.0973
14882 1 -15.124 -12.597 -13.4504 18.5332 21.0603 20.2069
6302 1 -14.7962 -11.2685 -12.8916 -14.7962 22.3888 -12.8916
1331 1 -12.6995 -11.3714 -13.9432 -12.6995 -11.3714 -13.9432
336 1 -11.0108 -11.7132 -13.6933 -11.0108 -11.7132 -13.6933
4514 1 -9.93798 -12.1833 -11.943 -9.93798 21.474 -11.943
11712 1 -9.33659 -11.9395 -13.7017 24.3207 -11.9395 19.9556
2488 1 -8.2087 -11.2543 -13.9649 -8.2087 -11.2543 19.6924
8036 1 -7.14145 -10.912 -13.4199 -7.14145 22.7452 20.2373
4807 1 -5.9903 -11.067 -12.7728 -5.9903 22.5902 -12.7728
1521 1 -3.64077 -12.0653 -14.1749 -3.64077 -12.0653 -14.1749
3618 1 -3.12981 -11.2373 -13.4134 -3.12981 -11.2373 20.2439
10961 1 -2.4677 -11.7374 -14.2771 -2.4677 -11.7374 19.3801
2687 1 -1.47781 -11.4493 -13.5078 -35.1351 -11.4493 -13.5078
6556 1 -2.75368 -10.3456 -0.221566 -2.75368 23.3116 -0.221566
15773 1 -0.834871 -0.912772 -1.99675 -0.834871 32.7445 -1.99675
2545 1 -15.1137 -9.81759 -12.5275 -15.1137 -9.81759 21.1297
9577 1 -14.0475 -9.96212 -13.9706 19.6097 -9.96212 -13.9706
12587 1 -13.4291 -10.6993 -12.9746 20.2282 -10.6993 -12.9746
5720 1 -12.584 -10.261 -13.8225 -12.584 23.3963 -13.8225
9845 1 -9.50824 -11.1971 -12.8704 24.149 -11.1971 -12.8704
8057 1 -10.5133 -10.4197 -13.6891 -10.5133 -10.4197 -13.6891
8850 1 -9.26077 -10.5399 -13.9552 24.3965 -10.5399 -13.9552
1760 1 -8.28316 -10.7826 -12.9325 -8.28316 -10.7826 -12.9325
8083 1 -5.47232 -10.3155 -13.6275 -5.47232 -10.3155 20.0297
12623 1 -4.54436 -11.1446 -13.3112 29.1129 22.5127 -13.3112
6380 1 -3.81474 -10.3571 -12.515 -3.81474 -10.3571 -12.515
4796 1 -1.50926 -9.60533 -13.7878 -1.50926 -9.60533 -13.7878
6994 1 -2.40023 -10.5248 -12.8555 -2.40023 -10.5248 20.8018
8804 1 -2.55923 -9.87076 -14.0617 -2.55923 -9.87076 -14.0617
9147 1 -0.191319 -11.4843 -13.3115 -0.191319 -11.4843 -13.3115
749 1 -16.1776 -9.29335 -13.3415 -16.1776 -9.29335 -13.3415
3528 1 -14.6956 -9.14578 -13.4721 -14.6956 -9.14578 -13.4721
335 1 -14.9783 -8.63615 -11.8416 -14.9783 -8.63615 -11.8416
14935 1 -11.624 -9.33408 -13.3539 -11.624 -9.33408 20.3033
899 1 -9.15397 -9.54565 -12.6504 -9.15397 -9.54565 -12.6504
3405 1 -7.93935 -8.56412 -13.1408 -7.93935 -8.56412 20.5164
8172 1 -6.33221 -9.28741 -12.9549 -6.33221 -9.28741 -12.9549
3074 1 -7.20758 -9.62489 -14.1524 -7.20758 -9.62489 19.5049
5290 1 -5.02734 -9.10865 -14.1131 -5.02734 -9.10865 -14.1131
4318 1 -3.86893 -8.7602 -13.1081 -3.86893 24.8971 -13.1081
15516 1 -1.86117 -9.09286 -12.8038 31.7961 -9.09286 20.8534
3488 1 -16.6402 -0.270261 -14.7425 -16.6402 -0.270261 18.9147
9339 1 -15.3759 -8.25633 -13.7365 18.2813 -8.25633 -13.7365
8500 1 -15.964 -7.49604 -12.8823 17.6932 -7.49604 -12.8823
8224 1 -14.0071 -7.67986 -12.9672 19.6501 -41.3371 -12.9672
10037 1 -12.707 -8.89651 -12.9726 -12.707 -8.89651 -12.9726
740 1 -12.9854 -7.46333 -13.8146 -12.9854 -7.46333 -13.8146
1090 1 -11.2032 -8.12912 -13.2693 -11.2032 -8.12912 -13.2693
12169 1 -9.05888 -7.70327 -13.7936 -9.05888 -7.70327 -13.7936
3523 1 -10.0632 -8.01751 -13.0666 -10.0632 -8.01751 20.5907
5115 1 -8.19418 -6.50935 -13.8675 -8.19418 -6.50935 -13.8675
10693 1 -7.89692 -7.42679 -12.536 25.7603 -7.42679 21.1212
751 1 -6.58768 -8.26509 -13.4591 -6.58768 -8.26509 -13.4591
9950 1 -4.68988 -7.67056 -13.4493 -4.68988 -7.67056 -13.4493
13318 1 -3.12057 -7.97799 -13.2445 -3.12057 -7.97799 -13.2445
10014 1 -3.9288 -7.68566 -14.4847 -3.9288 -7.68566 -14.4847
3004 1 -1.74982 -8.30308 -13.689 -1.74982 -8.30308 19.9682
797 1 -0.421186 -7.3121 -13.9452 -0.421186 -7.3121 -13.9452
4581 1 -0.876687 -8.37241 -14.1646 -0.876687 -8.37241 -14.1646
13161 1 -1.44128 -7.20522 -12.525 -1.44128 -7.20522 -12.525
15658 1 -15.6295 -5.83469 -12.5489 18.0277 -5.83469 -12.5489
9133 1 -14.5346 -6.27807 -13.6873 19.1227 -6.27807 -13.6873
8062 1 -13.3678 -6.2486 -13.0979 -13.3678 -6.2486 20.5593
2611 1 -11.6006 -6.74383 -13.6656 -11.6006 -6.74383 19.9916
2303 1 -12.3496 -7.37022 -12.6522 -12.3496 -7.37022 21.005
7227 1 -10.6096 -6.37358 -12.8591 -10.6096 -6.37358 -12.8591
2801 1 -9.674 -6.55858 -13.514 -9.674 -6.55858 20.1432
3889 1 -6.73196 -6.08063 -13.3418 -6.73196 -6.08063 -13.3418
15708 1 -5.5188 -6.12592 -13.4414 -5.5188 -6.12592 20.2158
1887 1 -4.04361 -6.72461 -13.768 -4.04361 -6.72461 -13.768
2117 1 -3.70222 -5.41419 -13.5512 -3.70222 -5.41419 -13.5512
4566 1 -2.76148 -7.09754 -13.7504 -2.76148 26.5597 -13.7504
15509 1 -1.28325 -6.31157 -13.4814 -1.28325 -6.31157 20.1758
3468 1 -16.5555 -5.13397 -13.1178 -16.5555 -5.13397 20.5394
11013 1 -14.7673 -4.88138 -13.4652 18.89 -4.88138 20.1921
8475 1 -11.7724 -5.36285 -13.0489 21.8849 -5.36285 -13.0489
6501 1 -11.387 -4.40581 -13.5382 -11.387 -4.40581 20.1191
1763 1 -10.4999 -4.84301 -12.6857 -10.4999 -4.84301 -12.6857
13950 1 -9.23414 -5.08241 -13.6127 -9.23414 -5.08241 -13.6127
3005 1 -7.80324 -5.41881 -13.2945 -7.80324 -5.41881 20.3627
621 1 -6.42207 -4.62089 -12.9456 -6.42207 -4.62089 -12.9456
9368 1 -4.89527 -5.85903 -12.5922 -4.89527 -5.85903 -12.5922
1590 1 -4.76318 -5.11727 -14.4489 -4.76318 -5.11727 -14.4489
2248 1 -3.57952 -5.2568 -12.5775 -3.57952 -5.2568 -12.5775
1702 1 -2.4491 -5.22242 -13.6356 -2.4491 -5.22242 -13.6356
5538 1 -1.82172 -5.21152 -11.9344 -1.82172 -5.21152 -11.9344
1798 1 -1.12917 -4.75653 -13.7098 -1.12917 -4.75653 -13.7098
12427 1 -16.2621 -3.86851 -13.8251 17.3952 -3.86851 -13.8251
4903 1 -15.9227 -4.13592 -12.6652 -15.9227 -4.13592 -12.6652
10751 1 -14.6744 -3.60585 -13.9292 18.9829 -3.60585 19.7281
4452 1 -12.5557 -2.87902 -13.597 -12.5557 -2.87902 -13.597
9429 1 -11.2189 -3.36412 -12.7539 22.4384 -37.0214 -12.7539
5089 1 -9.11287 -4.07631 -12.9692 -9.11287 -4.07631 -12.9692
570 1 -7.95312 -3.56772 -13.1712 -7.95312 -3.56772 -13.1712
11445 1 -5.437 -3.92283 -12.9366 28.2203 -3.92283 20.7207
5563 1 -3.91329 -4.06711 -13.5807 -3.91329 -4.06711 -13.5807
5248 1 -2.32176 -3.98368 -13.594 -2.32176 -3.98368 -13.594
13896 1 -3.59653 -3.40348 -12.58 -3.59653 -3.40348 -12.58
4691 1 -1.31116 -3.31856 -13.4976 -1.31116 -3.31856 -13.4976
5210 1 -0.0470962 -3.94211 -13.663 -0.0470962 29.7151 -13.663
13163 1 -16.1984 -2.92849 -12.9922 17.4589 -2.92849 -12.9922
3319 1 -15.0659 -2.20541 -12.2944 -15.0659 -2.20541 21.3629
1023 1 -13.9697 -1.95233 -13.8534 -13.9697 -1.95233 -13.8534
15602 1 -11.3013 -2.2396 -13.6825 22.3559 -2.2396 19.9748
1503 1 -12.2332 -1.17887 -13.6072 -12.2332 -34.8361 -13.6072
8097 1 -10.1091 -3.43264 -13.6539 -10.1091 -3.43264 20.0034
13678 1 -10.0901 -1.71428 -13.8001 -10.0901 -1.71428 -13.8001
9303 1 -9.45801 -2.54211 -13.804 24.1992 -2.54211 -13.804
11563 1 -9.11053 -1.80576 -13.0778 -9.11053 -1.80576 20.5795
13603 1 -8.24107 -1.80758 -13.9858 -8.24107 -1.80758 -13.9858
6778 1 -6.99104 -2.82121 -13.2424 -6.99104 -2.82121 20.4149
5052 1 -5.54362 -2.69575 -13.5915 -5.54362 -2.69575 -13.5915
11792 1 -2.75873 -2.14299 -13.3386 -2.75873 -2.14299 20.3187
3263 1 -4.43018 -1.91819 -12.9104 -4.43018 -1.91819 20.7469
676 1 -1.15631 -2.1619 -14.0777 -1.15631 -2.1619 -14.0777
6418 1 -2.43466 -0.651208 -13.2704 -2.43466 -0.651208 -13.2704