ITEM: TIMESTEP
500
ITEM: NUMBER OF ATOMS
16384
ITEM: BOX BOUNDS pp pp pp
-1.6828627036276380e+01 1.6828627036276380e+01
-1.6828627036276380e+01 1.6828627036276380e+01
-1.6828627036276380e+01 1.6828627036276380e+01
ITEM: ATOMS id type x y z xu yu zu
4346 1 -15.2984 -0.0364964 -12.5392 -15.2984 -0.0364964 -12.5392
15121 1 -13.2644 -16.3042 -15.3555 20.3928 17.3531 18.3017
7406 1 -13.0346 -15.8546 -16.6194 -13.0346 17.8026 17.0378
7394 1 -8.78569 -15.8235 -16.4444 -8.78569 17.8338 17.2129
992 1 -3.73805 -0.475811 -7.76995 -3.73805 -0.475811 -7.76995
1372 1 -5.90298 -16.2635 -16.0367 -5.90298 -16.2635 -16.0367
5159 1 -4.80096 -16.6366 -15.6368 -4.80096 17.0206 -15.6368
7038 1 -3.23119 -15.7901 -16.7039 -3.23119 17.8672 16.9533
5496 1 -0.320452 -3.25992 -6.24059 -0.320452 -3.25992 -6.24059
12571 1 -2.26585 -16.5557 -16.197 -2.26585 17.1016 -16.197
13322 1 -0.620277 -15.5915 -16.8798 -0.620277 -15.5915 -16.8798
12359 1 -0.945279 -1.4876 -0.107572 32.712 -1.4876 -0.107572
11966 1 -15.3025 -14.5697 -16.2698 18.3548 -14.5697 17.3874
554 1 -13.6374 -14.9717 -15.8065 -13.6374 -14.9717 -15.8065
1740 1 -12.962 -14.0964 -15.265 20.6953 -14.0964 -15.265
15615 1 -12.1905 -14.9607 -16.2082 -12.1905 18.6965 17.449
1812 1 -10.6601 -14.6828 -16.3401 -10.6601 -14.6828 -16.3401
4859 1 -8.68647 -14.318 -15.5131 -8.68647 19.3392 -15.5131
7332 1 -7.68667 -15.3155 -15.4922 -7.68667 18.3418 18.165
9435 1 -7.04062 -14.7972 -16.6019 26.6166 -14.7972 -16.6019
6376 1 -5.67943 -14.8815 -15.7679 -5.67943 18.7758 17.8894
5221 1 -2.52892 -14.8154 -16.6005 -2.52892 18.8418 -16.6005
8669 1 -4.07413 -14.7486 -16.3629 -4.07413 -14.7486 -16.3629
8255 1 -3.50727 -13.7821 -15.7217 -3.50727 -13.7821 -15.7217
15718 1 -1.4664 -14.9987 -16.4434 -1.4664 18.6586 -16.4434
2729 1 -15.6298 -13.3305 -16.2219 -15.6298 -13.3305 17.4354
6965 1 -14.219 -13.9807 -16.2748 -14.219 19.6766 17.3825
1251 1 -12.2329 -13.3141 -16.0642 -12.2329 20.3431 -16.0642
1331 1 -11.4707 -12.4766 -15.3715 -11.4707 -12.4766 -15.3715
11190 1 -10.7808 -13.8343 -15.3681 -10.7808 -13.8343 18.2891
3519 1 -9.93789 -12.4409 -15.7767 -9.93789 -12.4409 17.8805
828 1 -10.6256 -16.5748 -10.5298 -10.6256 -16.5748 -10.5298
1723 1 -7.99227 -12.7477 -16.4595 -7.99227 -12.7477 -16.4595
3293 1 -6.44065 -14.1541 -15.9343 -6.44065 -14.1541 17.7229
10749 1 -4.80327 -13.5703 -16.3788 -4.80327 -13.5703 -16.3788
4572 1 -4.52307 -14.0047 -15.4732 -4.52307 19.6525 -15.4732
1925 1 -3.38254 -12.591 -16.5477 -3.38254 -12.591 -16.5477
12244 1 -1.35071 -12.7642 -15.6839 32.3065 -12.7642 17.9734
13157 1 -2.45674 -13.34 -16.1476 -2.45674 20.3173 -16.1476
2962 1 -0.865213 -13.1176 -16.6799 -0.865213 -13.1176 16.9773
1871 1 -16.4725 -12.0731 -16.3014 -16.4725 -12.0731 17.3558
5662 1 -16.1968 -12.0592 -15.1496 -16.1968 21.598 -15.1496
15107 1 -14.7015 -12.0593 -15.8163 18.9558 -12.0593 17.841
11183 1 -10.0975 -0.150341 -4.29631 23.5598 -0.150341 -4.29631
3581 1 -13.6659 -12.5593 -16.2087 -13.6659 -12.5593 17.4486
1566 1 -12.6287 -11.8892 -15.3174 -12.6287 -11.8892 -15.3174
1978 1 -13.7413 -10.9868 -16.7721 -13.7413 -10.9868 -16.7721
16381 1 -12.8894 -0.332687 -0.891095 20.7678 -0.332687 -0.891095
10949 1 -9.08026 -11.614 -15.4268 24.577 -11.614 18.2305
6529 1 -8.16471 -11.5512 -16.4137 -8.16471 -11.5512 17.2436
1429 1 -5.11151 -12.45 -15.1783 -5.11151 -12.45 -15.1783
12016 1 -5.74118 -10.9357 -15.1625 -5.74118 -10.9357 18.4947
6523 1 -6.70696 -12.905 -16.2732 -6.70696 20.7523 17.384
5027 1 -4.67894 -12.4014 -16.137 -4.67894 21.2558 -16.137
1724 1 -1.73489 -11.129 -16.1698 -1.73489 -11.129 -16.1698
1732 1 -3.03405 -11.208 -16.1057 -3.03405 -11.208 -16.1057
15834 1 -0.583381 -11.7483 -15.131 -0.583381 -11.7483 18.5263
603 1 -14.594 -10.0829 -16.6259 -14.594 -10.0829 -16.6259
4219 1 -12.4933 -10.7065 -15.8154 -12.4933 22.9507 -15.8154
12827 1 -11.0403 -10.9432 -15.9987 -11.0403 22.7141 -15.9987
8215 1 -11.3757 -9.67252 -14.9149 -11.3757 23.9847 18.7424
1175 1 -9.72994 -10.1394 -16.3485 -9.72994 -10.1394 -16.3485
8173 1 -7.05986 -10.7047 -15.5726 -7.05986 22.9526 18.0847
3722 1 -8.39697 -10.1964 -16.3904 -8.39697 -10.1964 17.2668
8860 1 -4.72556 -10.5217 -16.5736 -4.72556 -10.5217 -16.5736
9433 1 -4.1083 -10.605 -15.5255 -4.1083 -10.605 -15.5255
12289 1 -0.550196 -10.7172 -16.5036 -0.550196 22.9401 17.1536
16141 1 -16.1442 -9.22672 -16.246 17.5131 -9.22672 17.4112
12192 1 -14.855 -8.86157 -16.2935 18.8023 -8.86157 17.3637
179 1 -13.5733 -9.70014 -15.6461 -13.5733 -9.70014 -15.6461
3528 1 -12.7253 -8.55014 -15.4665 -12.7253 -8.55014 -15.4665
1143 1 -11.7678 -9.37318 -16.8285 -11.7678 -9.37318 -16.8285
5503 1 -11.6103 -8.82915 -15.987 -11.6103 24.8281 -15.987
13617 1 -10.2387 -9.46957 -15.6018 -10.2387 24.1877 -15.6018
1438 1 -8.65435 -9.21477 -16.7933 -8.65435 -9.21477 -16.7933
9790 1 -7.596 -9.17557 -16.0381 -7.596 -9.17557 -16.0381
3551 1 -5.95312 -9.99368 -15.942 -5.95312 -9.99368 -15.942
10054 1 -4.85444 -8.64502 -15.8288 -4.85444 -8.64502 -15.8288
4689 1 -4.2408 -9.51797 -16.1745 -4.2408 -9.51797 -16.1745
15709 1 -1.4051 -8.75584 -15.4785 -1.4051 24.9014 -15.4785
6399 1 -0.204381 -0.470687 -0.898855 -0.204381 -0.470687 -0.898855
10187 1 -0.560489 -9.23834 -16.2492 -0.560489 -9.23834 -16.2492
1577 1 -16.7873 -7.28689 -16.4437 -16.7873 -7.28689 -16.4437
3511 1 -14.9081 -7.31046 -15.977 -14.9081 -7.31046 17.6803
14935 1 -12.0459 -7.60904 -15.7923 -12.0459 -7.60904 17.8649
3051 1 -11.7234 -7.70902 -16.8419 -11.7234 -7.70902 16.8154
16305 1 -10.5627 -8.22782 -16.2727 -10.5627 -8.22782 17.3845
1536 1 -7.89622 -8.00526 -15.5959 -7.89622 -8.00526 -15.5959
2147 1 -8.48178 -7.48229 -16.5362 -8.48178 -7.48229 17.121
7639 1 -6.92115 -7.84705 -16.1573 -6.92115 -7.84705 17.4999
2873 1 -5.45739 -7.8233 -16.1605 -5.45739 -7.8233 17.4967
15702 1 -6.66016 -0.633065 -1.1418 26.9971 -0.633065 -1.1418
8083 1 -2.42056 -7.52054 -15.6475 -2.42056 -7.52054 18.0098
8503 1 -1.02234 -7.85747 -15.8895 -1.02234 -7.85747 -15.8895
6152 1 -12.184 -16.5125 -2.95701 -12.184 17.1448 -2.95701
4619 1 -16.8305 -6.10223 -15.2362 -16.8305 -6.10223 -15.2362
1992 1 -7.46586 -16.5695 -2.53405 -7.46586 -16.5695 -2.53405
64 1 -15.7865 -5.70347 -16.0067 -15.7865 -5.70347 -16.0067
5476 1 -14.8944 -0.0518145 -1.8503 18.7629 -0.0518145 -1.8503
2623 1 -13.0305 -7.49885 -16.6182 -13.0305 -7.49885 17.039
6334 1 -12.6303 -6.05128 -15.6022 -12.6303 -6.05128 18.0551
335 1 -11.3375 -6.62688 -15.5538 -11.3375 -6.62688 -15.5538
6982 1 -10.3252 -6.48381 -16.3783 -10.3252 -6.48381 17.279
12503 1 -9.17809 -6.20657 -15.7409 24.4792 27.4507 -15.7409
6320 1 -14.5292 -0.239106 -0.399858 -14.5292 -0.239106 -0.399858
11538 1 -7.72417 -6.13161 -16.3309 25.9331 -6.13161 17.3264
1481 1 -5.53562 -5.80645 -16.2847 -5.53562 -5.80645 -16.2847
7442 1 -15.8274 -0.383073 -11.5611 17.8298 -0.383073 22.0962
4715 1 -3.89703 -6.68386 -16.1598 -3.89703 26.9734 -16.1598
2324 1 -0.899097 -6.73283 -15.7071 -0.899097 -6.73283 17.9502
13055 1 -16.4907 -16.8022 -5.38328 17.1666 16.8551 -5.38328
10751 1 -15.1692 -4.40204 -16.3533 18.4881 -4.40204 17.304
4711 1 -13.9689 -5.42617 -15.4088 -13.9689 28.2311 -15.4088
10069 1 -12.8386 -4.81655 -15.8916 20.8187 -4.81655 -15.8916
2649 1 -11.2623 -5.2982 -16.2552 -11.2623 -5.2982 17.4021
1469 1 -7.78079 -0.272415 -0.644065 -7.78079 -0.272415 -0.644065
3405 1 -7.36905 -4.80443 -15.6729 -7.36905 -4.80443 17.9844
2611 1 -6.74971 -5.54685 -16.0309 -6.74971 -5.54685 17.6264
13563 1 -3.84879 -4.62641 -15.828 -3.84879 -4.62641 -15.828
81 1 -2.81257 -5.75856 -15.9993 -2.81257 -5.75856 -15.9993
15509 1 -1.92661 -4.1209 -15.8594 -1.92661 -4.1209 17.7978
10316 1 -0.444239 -5.18569 -16.5081 -0.444239 -5.18569 17.1492
5386 1 -1.74103 -6.10898 -16.1734 -1.74103 27.5483 -16.1734
2333 1 -16.4934 -3.53456 -15.9589 -16.4934 -3.53456 17.6984
1363 1 -13.1128 -3.0332 -16.618 -13.1128 -3.0332 -16.618
2303 1 -11.7295 -4.09268 -15.4364 -11.7295 -4.09268 18.2208
356 1 -10.2249 -2.55048 -16.3242 -10.2249 -2.55048 -16.3242
2264 1 -9.41436 -3.59872 -15.2605 -9.41436 -3.59872 18.3968
476 1 -9.43504 -4.66138 -16.612 -9.43504 -4.66138 -16.612
4995 1 -6.95708 -4.06704 -16.5832 -6.95708 -4.06704 -16.5832
3424 1 -5.54244 -3.92704 -16.2843 -5.54244 -3.92704 17.3729
13436 1 -3.26025 -3.56416 -16.1148 -3.26025 30.0931 -16.1148
6214 1 -4.4962 -3.61185 -16.4858 -4.4962 -3.61185 17.1714
13292 1 -1.84221 -2.61825 -16.6055 -1.84221 -2.61825 -16.6055
1169 1 -0.419648 -3.73042 -16.6845 -0.419648 -3.73042 -16.6845
13917 1 -5.76404 -16.798 -1.82888 27.8932 16.8592 -1.82888
7648 1 -0.161737 -2.61464 -9.81978 -0.161737 -2.61464 23.8375
4068 1 -14.3994 -3.14844 -16.5586 -14.3994 -3.14844 -16.5586
323 1 -14.5621 -2.49636 -15.8104 -14.5621 -2.49636 -15.8104
9339 1 -13.2458 -2.07137 -15.517 20.4115 -2.07137 -15.517
13690 1 -11.594 -2.02405 -15.6822 22.0632 -2.02405 -15.6822
12420 1 -9.11916 -2.45368 -16.3622 24.5381 -2.45368 -16.3622
6430 1 -8.26081 -1.42114 -16.6046 -8.26081 -1.42114 17.0527
1882 1 -7.2183 -2.8882 -15.9094 -7.2183 -2.8882 -15.9094
5385 1 -5.49804 -1.60139 -15.496 -5.49804 -1.60139 -15.496
1275 1 -3.85475 -2.44771 -16.7168 -3.85475 -2.44771 -16.7168
4522 1 -2.34552 -2.75772 -15.5603 -2.34552 -2.75772 -15.5603
3802 1 -2.38635 -1.46316 -16.2936 -2.38635 -1.46316 17.3637
11530 1 -0.604241 -2.05402 -16.4247 -0.604241 -2.05402 17.2325
11013 1 -16.1213 -0.905731 -15.7788 17.536 -0.905731 17.8784
9060 1 -14.4646 -0.105117 -16.6449 19.1927 -0.105117 -16.6449
4299 1 -12.6745 -1.03339 -15.9835 -12.6745 -1.03339 -15.9835
10238 1 -14.4209 -1.33174 -16.3671 19.2364 -1.33174 -16.3671
3869 1 -11.4629 -0.744742 -16.2935 -11.4629 -0.744742 17.3637
11507 1 -10.4259 -0.854666 -15.4353 23.2314 -0.854666 18.2219
12912 1 -9.42929 -1.00286 -14.9037 24.228 -1.00286 18.7535
15923 1 -9.95891 -1.55198 -16.2909 23.6983 -1.55198 17.3663
5304 1 -7.21473 -0.508572 -16.7487 -7.21473 33.1487 -16.7487
1690 1 -6.19418 -1.39039 -16.65 -6.19418 -1.39039 -16.65
1093 1 -5.53668 -0.401709 -16.0138 -5.53668 -0.401709 -16.0138
12204 1 -3.02133 -0.878239 -15.6418 -3.02133 -0.878239 -15.6418
10294 1 -4.77252 -0.220846 -0.416993 -4.77252 -0.220846 -0.416993
15143 1 -0.825687 -1.36732 -15.5973 -0.825687 -1.36732 18.06
671 1 -15.3472 -15.689 -15.6145 -15.3472 -15.689 -15.6145
3238 1 -14.4556 -16.4338 -15.3548 -14.4556 -16.4338 18.3025
1924 1 -13.2248 -16.353 -14.0256 -13.2248 -16.353 -14.0256
2372 1 -12.0085 -15.7756 -14.8337 -12.0085 -15.7756 18.8235
4514 1 -11.2648 -16.5997 -15.0628 -11.2648 17.0576 -15.0628
14445 1 -10.2498 -16.0192 -15.4017 23.4074 17.638 18.2556
15064 1 -8.4268 -15.3161 -14.6035 25.2305 -15.3161 19.0538
472 1 -6.3308 -15.1792 -14.4397 -6.3308 -15.1792 -14.4397
1171 1 -6.94158 -16.4242 -14.6541 -40.5988 -16.4242 -14.6541
10321 1 -5.22457 -16.3959 -14.0247 -5.22457 -16.3959 19.6326
4720 1 -4.01102 -16.599 -14.7992 -4.01102 17.0583 -14.7992
2354 1 -3.28366 -15.7912 -15.0798 -3.28366 -15.7912 18.5775
6113 1 -2.03351 -16.3576 -14.6595 -2.03351 17.2996 -14.6595
5937 1 -0.444754 -15.7967 -15.2808 -0.444754 17.8606 -15.2808
4887 1 -16.4008 -10.5898 -10.5008 -16.4008 23.0675 -10.5008
13955 1 -15.4075 -13.9664 -15.4444 18.2498 19.6909 -15.4444
10691 1 -6.06097 -11.9866 -16.3587 27.5963 -11.9866 17.2986
2429 1 -13.8108 -14.8118 -14.6219 -13.8108 -14.8118 19.0354
15396 1 -12.2639 -14.6108 -14.2623 21.3934 19.0464 19.3949
14187 1 -11.7848 -13.6031 -14.8645 21.8724 20.0541 -14.8645
4054 1 -10.2518 -14.5738 -14.8217 -10.2518 -14.5738 18.8356
8301 1 -7.35264 -14.3373 -15.2382 -7.35264 -14.3373 -15.2382
5916 1 -4.63767 -15.3782 -14.7042 -4.63767 18.279 -14.7042
5700 1 -5.61564 -14.5653 -13.8743 -5.61564 19.0919 -13.8743
3482 1 -4.37283 -14.2167 -14.5109 -4.37283 19.4405 19.1464
5300 1 -2.03595 -14.8837 -15.215 -2.03595 18.7735 -15.215
9415 1 -16.2798 -13.2576 -15.143 17.3774 -13.2576 -15.143
2399 1 -14.5771 -13.6121 -14.6461 -14.5771 -13.6121 19.0111
1176 1 -13.8012 -12.9601 -14.8075 -13.8012 -12.9601 -14.8075
7900 1 -12.7933 -13.1425 -14.85 -12.7933 20.5148 18.8072
7848 1 -8.22715 -13.31 -15.1763 -8.22715 20.3473 18.481
13813 1 -9.8846 -13.1225 -14.648 23.7727 20.5347 -14.648
3127 1 -5.67626 -13.8141 -14.8231 -5.67626 -13.8141 18.8342
12351 1 -3.31996 -13.4495 -14.5135 30.3373 20.2077 -14.5135
12146 1 -2.0166 -13.9288 -14.2938 -2.0166 -13.9288 19.3635
9099 1 -0.987271 -14.0307 -15.243 -0.987271 -14.0307 -15.243
8734 1 -16.0874 -11.6937 -14.0903 17.5699 -11.6937 -14.0903
2051 1 -15.022 -11.6546 -14.8063 -15.022 -11.6546 18.851
10488 1 -14.6754 -12.6718 -13.9375 18.9819 20.9854 19.7198
2488 1 -12 -11.4367 -14.6413 -12 -11.4367 19.0159
10172 1 -10.723 -11.921 -14.8534 22.9343 -11.921 -14.8534
4147 1 -8.66962 -12.2048 -14.4998 -8.66962 21.4525 -14.4998
336 1 -9.70322 -11.6977 -14.2912 -9.70322 -11.6977 -14.2912
15864 1 -7.83525 -11.5527 -15.3766 -7.83525 22.1045 18.2807
13962 1 -7.76944 -12.8977 -13.819 25.8878 -12.8977 -13.819
8868 1 -7.09257 -13.0857 -15.1553 -7.09257 -13.0857 -15.1553
2298 1 -2.49038 -12.3324 -15.154 -2.49038 -12.3324 18.5032
13517 1 -3.96023 -12.4838 -15.2056 -3.96023 21.1735 -15.2056
6944 1 -2.62547 -11.0638 -14.7748 -2.62547 22.5934 18.8825
6428 1 -1.25031 -10.7024 -14.5206 -1.25031 22.9549 19.1367
4007 1 -15.872 -10.1452 -14.9883 -15.872 -10.1452 18.669
9191 1 -1.32586 0.0264568 -2.63083 -1.32586 0.0264568 -2.63083
319 1 -14.2831 -10.7924 -15.5951 -14.2831 -10.7924 -15.5951
11856 1 -13.1206 -10.395 -14.5031 20.5367 -10.395 19.1542
4235 1 -10.3717 -10.8654 -15.0983 -10.3717 22.7919 18.5589
2736 1 -10.5507 -9.12101 -14.301 -10.5507 -9.12101 19.3563
8036 1 -8.47579 -10.3453 -15.0261 -8.47579 23.312 18.6311
3074 1 -7.22906 -10.6667 -13.9839 -7.22906 -10.6667 19.6733
389 1 -5.66743 -9.92357 -14.7319 -5.66743 -9.92357 -14.7319
6174 1 -4.67306 -11.0748 -14.7029 -4.67306 -11.0748 18.9544
7037 1 -2.96798 -10.0343 -14.7036 -2.96798 23.623 18.9537
10961 1 -1.48468 -10.1119 -15.988 -1.48468 -10.1119 17.6693
11149 1 -2.78323 -9.75297 -16.1293 -2.78323 -9.75297 17.5279
8611 1 -0.536029 -10.1132 -13.9948 -0.536029 -10.1132 -13.9948
12056 1 -15.7957 -9.42988 -13.7996 -15.7957 -9.42988 19.8577
1375 1 -15.6543 -9.15623 -14.9525 -15.6543 -9.15623 -14.9525
10043 1 -14.0714 -8.99729 -13.5639 19.5859 -8.99729 -13.5639
13271 1 -14.1583 -10.0424 -14.7225 19.4989 23.6148 -14.7225
2361 1 -13.4625 -8.21134 -14.1995 -13.4625 -8.21134 19.4578
5986 1 -12.4307 -8.52745 -14.4793 -12.4307 -8.52745 -14.4793
5423 1 -10.7927 -8.23111 -15.1802 -10.7927 -8.23111 -15.1802
733 1 -9.36603 -9.64775 -14.885 -9.36603 -9.64775 -14.885
808 1 -8.08816 -9.08245 -14.2426 -8.08816 -9.08245 -14.2426
1426 1 -7.10111 -9.46935 -14.9895 -7.10111 -9.46935 -14.9895
1305 1 -6.37952 -8.56954 -15.5831 -6.37952 -8.56954 -15.5831
1017 1 -5.31565 -9.04459 -14.4487 -5.31565 -9.04459 -14.4487
5261 1 -2.56769 -8.41649 -15.238 -2.56769 -8.41649 -15.238
9300 1 -0.371023 -8.59033 -13.3849 -0.371023 -8.59033 -13.3849
7964 1 -15.6361 -8.3519 -15.8872 -15.6361 25.3054 17.77
53 1 -13.8096 -8.39912 -15.3492 -13.8096 -42.0564 -15.3492
13260 1 -15.0717 -7.70936 -14.9379 18.5855 25.9479 -14.9379
11708 1 -12.9144 -6.9948 -14.6473 -12.9144 -6.9948 19.0099
12226 1 -11.6838 -7.86686 -14.1359 -11.6838 -7.86686 19.5214
1975 1 -10.0823 -6.63805 -13.937 -10.0823 -6.63805 -13.937
12522 1 -10.0362 -7.39591 -15.8939 -10.0362 -7.39591 -15.8939
4034 1 -9.00839 -8.76427 -15.6999 -9.00839 -8.76427 17.9574
741 1 -9.44819 -7.33277 -14.6789 -9.44819 -7.33277 -14.6789
10984 1 -7.75808 -7.68951 -13.8026 25.8992 -7.68951 19.8547
1843 1 -5.07401 -7.71513 -14.7583 -5.07401 -7.71513 -14.7583
10528 1 -4.05987 -8.45537 -14.6751 -4.05987 -8.45537 18.9821
4295 1 -3.79119 -7.78768 -16.0868 -3.79119 -7.78768 -16.0868
616 1 -1.24351 -8.66815 -14.2794 -1.24351 -8.66815 -14.2794
797 1 -2.96311 -8.00444 -14.292 -2.96311 -8.00444 -14.292
3015 1 -0.134957 -7.27068 -15.0133 -0.134957 -7.27068 18.644
13987 1 -15.6231 -5.5577 -14.6458 18.0341 -5.5577 -14.6458
1965 1 -14.2375 -6.56465 -15.4119 -14.2375 -6.56465 -15.4119
5025 1 -10.2101 -6.00118 -14.9653 -10.2101 -6.00118 -14.9653
793 1 -11.2852 -6.8492 -14.0486 -11.2852 -6.8492 -14.0486
11445 1 -8.72806 -6.4818 -13.226 24.9292 -6.4818 20.4312
12169 1 -8.10997 -6.91687 -14.9781 -8.10997 -6.91687 -14.9781
1760 1 -6.4406 -6.59239 -14.8384 -6.4406 -6.59239 -14.8384
11381 1 -4.83827 -6.62367 -15.2794 28.819 -6.62367 18.3779
12350 1 -6.28863 -5.46808 -14.771 -6.28863 28.1892 -14.771
8505 1 -3.44525 -6.09498 -15.0155 -3.44525 -6.09498 -15.0155
1578 1 -4.12894 -5.87935 -14.1256 -4.12894 -5.87935 -14.1256
2117 1 -1.86453 -6.28929 -14.7152 -1.86453 -6.28929 -14.7152
2198 1 -16.1454 -4.59398 -15.6026 -16.1454 -4.59398 18.0547
9529 1 -14.5879 -4.70896 -14.4853 19.0693 -4.70896 -14.4853
5522 1 -12.5521 -5.21159 -14.5373 -12.5521 -5.21159 -14.5373
480 1 -11.6137 -5.47979 -15.0329 -11.6137 -5.47979 -15.0329
3070 1 -10.6536 -4.38191 -15.4478 -10.6536 -4.38191 18.2095
618 1 -9.3137 -5.29713 -13.884 24.3435 -5.29713 -13.884
6 1 -9.25984 -4.91686 -15.5558 -9.25984 -4.91686 -15.5558
1866 1 -8.16172 -5.81139 -14.7589 -8.16172 -5.81139 -14.7589
3263 1 -6.83092 -4.23854 -14.4605 -6.83092 -4.23854 19.1967
10259 1 -5.17645 -5.548 -15.3918 -5.17645 -5.548 -15.3918
11792 1 -3.90361 -4.42646 -14.3233 -3.90361 -4.42646 19.334
9673 1 -2.89936 -3.53997 -14.9641 -2.89936 -3.53997 -14.9641
11978 1 -1.26911 -5.14994 -15.5746 -1.26911 -5.14994 18.0827
7456 1 -12.3361 -16.6967 -16.2501 -12.3361 16.9606 -16.2501
1707 1 -15.1761 -3.51412 -15.4772 -15.1761 -3.51412 -15.4772
10490 1 -16.0165 -3.51494 -14.6265 17.6407 -3.51494 19.0307
6501 1 -13.749 -3.42623 -15.474 -13.749 -3.42623 18.1833
4724 1 -11.0449 -3.00831 -14.8376 -11.0449 -3.00831 -14.8376
4789 1 -12.2929 -2.71439 -15.3002 -12.2929 -2.71439 -15.3002
2054 1 -9.55742 -3.99119 -14.2287 -9.55742 -3.99119 19.4286
11676 1 -7.99131 -3.72176 -14.9385 25.6659 -3.72176 18.7187
1032 1 -7.36713 -3.53139 -13.9176 -7.36713 -3.53139 -13.9176
621 1 -6.23158 -4.4869 -15.4217 -6.23158 -4.4869 -15.4217
160 1 -5.90027 -2.87165 -15.5818 -5.90027 -2.87165 -15.5818
696 1 -4.90426 -4.22147 -14.8797 -4.90426 -4.22147 -14.8797
5834 1 -1.73782 -2.98744 -14.7057 -1.73782 -2.98744 -14.7057
8716 1 -0.862756 -4.04774 -15.3042 -0.862756 -4.04774 -15.3042
4094 1 -15.7441 -2.13118 -15.2581 -15.7441 -2.13118 -15.2581
12580 1 -14.4376 -2.66496 -14.5196 -14.4376 -2.66496 -14.5196
15950 1 -13.1845 -1.90442 -14.4727 20.4727 -1.90442 19.1845
6303 1 -10.8679 -1.29832 -14.4861 -10.8679 -1.29832 19.1712
10037 1 -9.9459 -2.21201 -14.6217 -9.9459 -2.21201 -14.6217
9303 1 -8.81944 -2.08117 -13.9633 24.8378 -2.08117 -13.9633
2110 1 -8.2346 -2.4506 -15.1549 -8.2346 -2.4506 18.5023
5308 1 -6.89926 -1.21827 -15.3357 -6.89926 -1.21827 -15.3357
4345 1 -6.83636 -2.64501 -14.5123 -6.83636 -2.64501 -14.5123
3747 1 -4.81239 -1.35806 -14.2181 -4.81239 -1.35806 19.4391
5248 1 -4.71914 -2.50416 -15.3539 -4.71914 -2.50416 -15.3539
2049 1 -3.78344 -2.22509 -14.9535 -3.78344 -2.22509 18.7038
12800 1 -0.569762 -2.50072 -14.9144 -0.569762 -2.50072 -14.9144
11163 1 -0.900478 -1.25789 -14.4991 -0.900478 -1.25789 19.1582
5841 1 -16.6824 -0.938322 -14.3748 -16.6824 -0.938322 -14.3748
2967 1 -15.7061 -0.138728 -14.8581 -15.7061 -0.138728 18.7992
7160 1 -14.2556 -1.12087 -15.1402 -14.2556 -1.12087 18.517
12386 1 -13.1471 -0.416357 -14.222 20.5102 -0.416357 -14.222
2135 1 -12.2834 -1.22027 -15.0883 -12.2834 -1.22027 18.569
13678 1 -8.7841 -0.345507 -14.511 -8.7841 -0.345507 -14.511
5740 1 -7.61701 -1.47951 -14.2519 -7.61701 -1.47951 -14.2519
9756 1 -8.19259 -1.01768 -15.5473 25.4647 -34.6749 -15.5473
11223 1 -0.0272147 -14.7163 -2.7962 33.63 -14.7163 -2.7962
86 1 -6.04832 -1.75507 -14.1077 -6.04832 -1.75507 -14.1077
1986 1 -4.06617 -1.50247 -16.0155 -4.06617 -1.50247 -16.0155
6851 1 -5.97019 -0.657377 -14.6938 -5.97019 -0.657377 18.9635
5941 1 -3.43786 -1.09058 -14.4838 -3.43786 -1.09058 -14.4838
10370 1 -2.04403 -1.30053 -15.2239 -2.04403 -1.30053 18.4333
1119 1 -0.290601 -0.0511107 -15.2005 -0.290601 -0.0511107 -15.2005
3427 1 -16.1036 -15.3029 -13.1399 -16.1036 -15.3029 -13.1399
1065 1 -15.7802 -16.464 -12.1442 -15.7802 -16.464 -12.1442
9308 1 -15.0306 -16.4126 -13.0461 18.6267 -16.4126 -13.0461
12986 1 -11.2125 -15.289 -14.2251 -11.2125 18.3683 -14.2251
11325 1 -12.2824 -15.7739 -13.1718 21.3749 -15.7739 20.4854
3110 1 -9.87675 -16.2291 -13.3289 -9.87675 -16.2291 20.3283
13367 1 -9.99479 -14.4793 -13.236 23.6625 19.178 -13.236
10044 1 -9.08521 -16.1268 -13.9401 -9.08521 17.5304 -13.9401
1743 1 -9.19215 -15.4856 -12.6938 -9.19215 -15.4856 -12.6938
1968 1 -6.88552 -16.6815 -12.6918 -6.88552 -16.6815 -12.6918
6769 1 -5.00096 -16.1079 -12.8077 -5.00096 -16.1079 20.8496
15663 1 -2.90859 -15.9517 -13.2935 30.7487 17.7055 20.3638
3335 1 -1.58692 -15.8268 -13.3548 -1.58692 -15.8268 -13.3548
347 1 -12.4613 -4.02095 -0.25864 -12.4613 -4.02095 -0.25864
16114 1 -0.555018 -16.7812 -13.4866 -0.555018 16.8761 20.1707
1810 1 -15.7094 -14.3975 -12.7978 -15.7094 -14.3975 -12.7978
9236 1 -15.2979 -15.2034 -14.4031 18.3593 -15.2034 -14.4031
2672 1 -14.0081 -14.5924 -12.3507 -14.0081 19.0649 -12.3507
7746 1 -13.1951 -14.6458 -13.2146 -13.1951 -14.6458 20.4427
13957 1 -11.6898 -14.7371 -13.0863 21.9674 18.9201 -13.0863
6436 1 -10.8968 -13.8653 -12.6263 -10.8968 19.7919 21.031
4124 1 -9.28616 -14.3907 -13.9354 -9.28616 19.2665 -13.9354
74 1 -8.17896 -13.808 -14.0955 -8.17896 -13.808 -14.0955
9845 1 -7.65401 -15.4177 -13.9545 26.0032 -15.4177 -13.9545
9119 1 -6.76595 -15.9953 -13.5027 -6.76595 -15.9953 -13.5027
523 1 -6.48858 -14.0823 -13.7358 -6.48858 -14.0823 -13.7358
12371 1 -3.99948 -15.5492 -13.2984 -3.99948 18.108 -13.2984
14133 1 -5.20018 -14.7338 -12.9915 -5.20018 18.9234 -12.9915
8719 1 -2.93993 -14.9566 -13.9749 -2.93993 -14.9566 -13.9749
9890 1 -3.58607 -13.8956 -12.5687 -3.58607 -13.8956 -12.5687
2126 1 -2.14916 -14.5807 -13.2044 -2.14916 -14.5807 20.4528
7898 1 -0.99082 -15.1915 -14.4287 -0.99082 18.4658 19.2286
7719 1 -0.783931 -14.2747 -13.4054 -0.783931 19.3825 20.2519
10042 1 -15.9468 -13.4196 -14.0089 17.7104 -13.4196 -14.0089
5296 1 -15.0451 -13.5152 -12.8131 -15.0451 20.142 -12.8131
4402 1 -13.8264 -13.6787 -13.517 -13.8264 19.9785 -13.517
8850 1 -12.5975 -13.2561 -13.0286 21.0598 -13.2561 -13.0286
1435 1 -10.7737 -13.1913 -14.1828 -10.7737 -13.1913 -14.1828
7824 1 -9.95948 -13.3419 -12.4296 -9.95948 20.3153 21.2277
14378 1 -7.39838 -13.9596 -13.1976 -7.39838 -13.9596 20.4597
9137 1 -5.84282 -13.0031 -14.2674 -5.84282 -13.0031 -14.2674
8261 1 -4.09514 -14.3025 -13.454 29.5621 -14.3025 -13.454
9896 1 -3.35814 -12.3861 -13.9814 -3.35814 -12.3861 -13.9814
1665 1 -1.03711 -12.8442 -13.1041 -1.03711 -12.8442 -13.1041
1269 1 -0.869337 -13.6093 -12.3399 -0.869337 -13.6093 -12.3399
8922 1 -0.473667 -13.5318 -14.3349 -0.473667 -13.5318 -14.3349
10574 1 -4.75002 -1.55144 -16.7664 -4.75002 -1.55144 16.8909
13535 1 -16.068 -12.4961 -13.137 17.5892 21.1611 -13.137
6381 1 -14.9029 -12.4587 -12.3218 -14.9029 21.1985 21.3355
12677 1 -13.2423 -12.6931 -13.785 20.4149 20.9641 -13.785
397 1 -12.2617 -12.0684 -12.6961 -12.2617 -12.0684 -12.6961
2658 1 -11.8546 -11.8214 -13.7131 -11.8546 -11.8214 19.9441
10492 1 -10.5554 -12.4591 -13.3582 23.1019 -12.4591 20.299
5136 1 -9.35959 -13.159 -13.7082 -9.35959 20.4982 -13.7082
5290 1 -8.96401 -11.392 -12.7935 -8.96401 -11.392 -12.7935
1456 1 -7.4671 -11.8294 -12.1277 -7.4671 -11.8294 -12.1277
8018 1 -6.14452 -12.2461 -13.2877 -6.14452 21.4111 -13.2877
357 1 -6.30874 -11.7071 -14.8769 -6.30874 -11.7071 -14.8769
6994 1 -4.83563 -12.5675 -13.7579 -4.83563 -12.5675 19.8994
4386 1 -4.3455 -11.4872 -13.0078 -4.3455 -11.4872 -13.0078
4680 1 -2.13113 -12.7771 -13.7598 -2.13113 20.8802 -13.7598
7279 1 -2.05879 -11.6202 -13.3005 -2.05879 -11.6202 -13.3005
9183 1 -0.820217 -11.4437 -13.5223 -0.820217 -11.4437 -13.5223
849 1 -15.6808 -10.0208 -12.8923 -15.6808 -10.0208 -12.8923
11606 1 -15.0756 -10.7193 -14.1846 18.5817 -10.7193 -14.1846
11865 1 -15.3026 -11.652 -13.24 18.3547 -11.652 20.4172
7931 1 -13.4866 -11.5859 -13.7378 -13.4866 22.0714 19.9195
2548 1 -13.7975 -10.2323 -13.578 -13.7975 -10.2323 20.0792
6302 1 -12.5071 -10.4714 -13.5811 -12.5071 23.1859 -13.5811
5720 1 -11.5174 -10.1422 -13.8296 -11.5174 23.5151 -13.8296
767 1 -9.86216 -11.0368 -13.2231 -9.86216 -11.0368 -13.2231
6380 1 -8.74498 -9.86466 -12.9158 -8.74498 -9.86466 -12.9158
1461 1 -8.50013 -11.2952 -13.7918 -8.50013 -11.2952 -13.7918
951 1 -7.2764 -10.9122 -12.928 -7.2764 -10.9122 -12.928
1895 1 -4.15401 -10.3831 -13.483 -4.15401 -10.3831 -13.483
5990 1 -5.52237 -10.9622 -13.5642 -5.52237 -10.9622 -13.5642
4581 1 -3.03222 -10.7419 -13.3633 -3.03222 -10.7419 -13.3633
9310 1 -15.778 -6.93388 -0.0847755 17.8793 -6.93388 -0.0847755
3298 1 -1.61859 -10.742 -12.2082 -1.61859 -10.742 21.449
899 1 -14.4049 -9.1637 -12.3931 -14.4049 -9.1637 -12.3931
9443 1 -13.1671 -9.63296 -12.7162 20.4901 -9.63296 -12.7162
1444 1 -11.9962 -9.23123 -13.1772 -11.9962 -9.23123 -13.1772
11712 1 -10.2115 -10.0102 -13.2678 23.4458 -10.0102 20.3894
3061 1 -9.40231 -9.24788 -12.1378 -9.40231 -9.24788 21.5195
1687 1 -7.77403 -9.46647 -13.1876 -7.77403 -9.46647 -13.1876
9599 1 -5.68483 -9.63752 -13.3586 -5.68483 -9.63752 -13.3586
9124 1 -6.67187 -8.84025 -13.5577 -6.67187 -8.84025 -13.5577
7070 1 -4.87876 -9.14412 -12.9989 -4.87876 -9.14412 20.6584
12340 1 -3.41678 -9.21474 -13.8721 -3.41678 -9.21474 19.7852
751 1 -1.97273 -9.7562 -14.6035 -1.97273 -9.7562 -14.6035
8415 1 -1.98148 -9.27338 -13.4378 -1.98148 -9.27338 -13.4378
15275 1 -15.6181 -7.72671 -13.8843 18.0391 -7.72671 19.773
5627 1 -14.3555 -7.70643 -12.6159 -14.3555 25.9508 -12.6159
12159 1 -13.9048 -7.23431 -13.5235 -13.9048 -7.23431 20.1337
10003 1 -10.8454 -7.8343 -13.427 22.8119 -7.8343 -13.427
12045 1 -8.82263 -8.17348 -13.7826 24.8346 -8.17348 19.8746
16127 1 -7.45899 -8.28936 -12.8312 26.1983 -8.28936 20.826
503 1 -6.22472 -7.80212 -14.5336 -6.22472 -7.80212 -14.5336
3004 1 -5.93867 -7.92516 -12.8839 -5.93867 -7.92516 20.7734
5563 1 -4.93386 -7.79963 -13.561 -4.93386 -7.79963 -13.561
10070 1 -3.8013 -6.66864 -13.3552 -3.8013 -6.66864 -13.3552
13477 1 -2.20681 -7.8853 -13.3005 -2.20681 25.772 -13.3005
11182 1 -1.45978 -7.23467 -14.2412 -1.45978 -7.23467 19.4161
13636 1 -1.09447 -7.48128 -12.6119 -1.09447 -7.48128 -12.6119
8500 1 -15.5873 -6.4203 -13.8044 18.0699 -6.4203 -13.8044
8057 1 -14.5528 -6.62045 -14.3233 -14.5528 -6.62045 -14.3233
9927 1 -14.8818 -5.91898 -13.0096 18.7755 -5.91898 -13.0096
5279 1 -13.8222 -5.65675 -13.7613 -13.8222 -5.65675 -13.7613
10661 1 -13.7628 -5.86167 -12.3431 19.8945 -5.86167 21.3142
14615 1 -13.0453 -4.95885 -12.4086 20.612 -4.95885 21.2487
8524 1 -12.5395 -6.63677 -13.4827 21.1178 -6.63677 -13.4827
1841 1 -10.3679 -6.64759 -12.9003 -10.3679 -6.64759 -12.9003
3523 1 -9.63815 -5.81519 -12.3634 -9.63815 -5.81519 21.2938
205 1 -7.73534 -6.76158 -13.2967 -7.73534 -6.76158 -13.2967
4172 1 -7.73231 -5.51542 -13.7754 -7.73231 28.1418 -13.7754
5052 1 -6.10312 -5.30746 -13.7037 -6.10312 -5.30746 -13.7037
7366 1 -5.50656 -6.46007 -13.9162 -5.50656 -6.46007 19.741
10764 1 -2.68903 -6.22535 -13.636 30.9682 -6.22535 20.0213
1702 1 -1.75396 -6.24577 -13.189 -1.75396 -6.24577 -13.189
1135 1 -0.241053 -6.20228 -13.7727 -0.241053 -6.20228 -13.7727
3974 1 -15.7659 -5.18501 -13.6045 -15.7659 -5.18501 20.0527
4176 1 -13.9633 -3.98615 -13.8627 -13.9633 -3.98615 -13.8627
870 1 -11.7462 -5.78681 -13.0575 -11.7462 -5.78681 -13.0575
13798 1 -10.8708 -5.21692 -13.9722 22.7864 28.4403 -13.9722
8179 1 -10.0677 -5.10807 -13.1375 -10.0677 -5.10807 20.5198
2146 1 -9.14084 -4.25317 -13.125 -9.14084 -4.25317 20.5322
570 1 -7.38684 -5.26717 -12.6386 -7.38684 -5.26717 -12.6386
22 1 -7.87727 -4.46104 -13.5583 -7.87727 -4.46104 -13.5583
324 1 -6.06364 -3.58792 -13.1337 -6.06364 -3.58792 -13.1337
1408 1 -4.52694 -5.42534 -13.3226 -4.52694 -5.42534 -13.3226
1590 1 -5.22731 -4.18446 -13.7409 -5.22731 -4.18446 -13.7409
1076 1 -3.91813 -4.61912 -12.8695 -3.91813 -4.61912 -12.8695
1625 1 -2.98649 -5.33975 -14.3254 -2.98649 -5.33975 -14.3254
9950 1 -2.11269 -4.89507 -13.9621 -2.11269 -4.89507 -13.9621
287 1 -1.58438 -4.37983 -12.5796 -1.58438 29.2774 -12.5796
12615 1 -0.665417 -4.82564 -14.3219 -0.665417 28.8316 -14.3219
4527 1 -15.6898 -4.42519 -12.8938 -15.6898 -4.42519 -12.8938
14908 1 -14.9186 -3.57615 -13.7967 18.7387 -3.57615 19.8605
13163 1 -15.0654 -3.24114 -12.356 18.5919 -3.24114 -12.356
7056 1 -14.6837 -4.63775 -12.8023 -14.6837 -4.63775 20.855
4452 1 -13.2412 -3.26285 -12.3851 -13.2412 -3.26285 -12.3851
3763 1 -12.9637 -2.41501 -13.518 -12.9637 -2.41501 20.1393
9678 1 -11.3185 -4.14812 -14.2165 22.3388 -4.14812 -14.2165
11112 1 -12.5755 -3.95976 -14.4409 21.0817 -3.95976 19.2164
14240 1 -11.5099 -3.65409 -12.4946 -11.5099 -3.65409 -12.4946
8616 1 -8.43245 -3.3456 -13.5989 -8.43245 -3.3456 -13.5989
12555 1 -10.372 -4.02161 -13.2664 23.2852 -4.02161 -13.2664
7732 1 -7.3394 -3.15186 -12.6462 -7.3394 -3.15186 21.0111
7275 1 -4.55266 -3.02595 -14.2534 -4.55266 30.6313 19.4039
16068 1 -4.79257 -3.58288 -12.6103 28.8647 -3.58288 -12.6103
6725 1 -3.17738 -3.21278 -13.7959 -3.17738 -3.21278 19.8614
7424 1 -1.51072 -2.71611 -13.5437 -1.51072 30.9411 20.1136
10824 1 -2.74189 -4.20231 -13.2742 -2.74189 -4.20231 20.3831
13161 1 -0.563104 -3.35967 -13.9858 -0.563104 -3.35967 -13.9858
11732 1 -16.4965 -2.08375 -12.9086 17.1607 -2.08375 20.7487
13423 1 -16.08 -2.3356 -13.849 17.5773 -2.3356 -13.849
4973 1 -14.2763 -1.64326 -13.9349 -14.2763 -1.64326 -13.9349
1894 1 -11.7652 -1.92468 -13.7079 -11.7652 -1.92468 -13.7079
8224 1 -12.1826 -2.22311 -12.7011 21.4747 -35.8804 -12.7011
15602 1 -9.97435 -2.78323 -13.3177 23.6829 -2.78323 20.3395
11563 1 -7.46584 -2.07473 -13.2155 -7.46584 -2.07473 20.4417
4691 1 -5.48901 -2.65611 -13.5821 -5.48901 -2.65611 -13.5821
7099 1 -6.76287 -1.04179 -13.2683 -6.76287 -1.04179 20.3889
5575 1 -3.53429 -2.20044 -13.4656 -3.53429 -2.20044 -13.4656
7075 1 -2.38185 -1.34914 -13.7528 -2.38185 -1.34914 19.9045
9111 1 -0.960855 -1.48382 -13.4248 -0.960855 -1.48382 -13.4248
11675 1 -16.6629 -1.24876 -5.68339 16.9944 -1.24876 27.9739
5094 1 -14.2782 -0.155428 -13.4712 -14.2782 -0.155428 -13.4712
12427 1 -15.4667 -0.999897 -13.8296 18.1906 -0.999897 -13.8296
7670 1 -14.8786 -2.13049 -12.7769 -14.8786 -2.13049 20.8804