ITEM: TIMESTEP
2000
ITEM: NUMBER OF ATOMS
16384
ITEM: BOX BOUNDS pp pp pp
-1.6828627036276380e+01 1.6828627036276380e+01
-1.6828627036276380e+01 1.6828627036276380e+01
-1.6828627036276380e+01 1.6828627036276380e+01
ITEM: ATOMS id type x y z xu yu zu
4219 1 -12.9236 -10.0132 -16.2102 -12.9236 23.644 -16.2102
671 1 -14.9636 -16.2234 -15.598 -14.9636 -16.2234 -15.598
8460 1 -16.6738 -9.74885 -5.80408 16.9834 -9.74885 -5.80408
5289 1 -1.52304 -16.4422 -0.0997054 -1.52304 17.2151 -0.0997054
228 1 -0.19757 -4.74887 -8.77734 -0.19757 -4.74887 -8.77734
2514 1 -0.401135 -15.1315 -2.5867 -0.401135 -15.1315 -2.5867
7130 1 -8.91206 -15.5446 -16.3119 -8.91206 18.1126 17.3454
7332 1 -7.14541 -16.6131 -15.8978 -7.14541 17.0441 17.7595
1256 1 -0.217486 -8.38955 -16.5569 -0.217486 -8.38955 -16.5569
11648 1 -4.84993 -15.6606 -15.4862 -4.84993 -15.6606 18.1711
6376 1 -4.14767 -16.6211 -15.9192 -4.14767 17.0362 17.738
5159 1 -3.27305 -16.3266 -14.9172 -3.27305 17.3307 -14.9172
12468 1 -1.19186 -16.8033 -2.59288 -1.19186 16.8539 -2.59288
5300 1 -1.82295 -14.4079 -16.1445 -1.82295 19.2493 -16.1445
146 1 -16.5321 -14.7001 -16.0791 -16.5321 -14.7001 -16.0791
6038 1 -15.6474 -15.2499 -15.5001 -15.6474 18.4074 18.1572
11966 1 -15.3725 -14.0014 -16.7121 18.2847 -14.0014 16.9452
13861 1 -9.47393 -16.1118 -1.94833 -9.47393 17.5455 -1.94833
1740 1 -11.9292 -14.6012 -14.6098 21.728 -14.6012 -14.6098
6965 1 -14.9889 -14.5004 -15.2514 -14.9889 19.1569 18.4058
14882 1 -11.7431 -14.9465 -15.6851 21.9142 18.7107 17.9721
13919 1 -14.3445 -16.7836 -16.4328 19.3127 16.8737 -16.4328
8965 1 -9.24409 -14.152 -16.4386 24.4132 -14.152 -16.4386
8301 1 -8.14442 -15.9483 -15.3515 -8.14442 -15.9483 -15.3515
9435 1 -7.64936 -15.4746 -16.3694 26.0079 -15.4746 -16.3694
3293 1 -6.37981 -15.6778 -15.1477 -6.37981 -15.6778 18.5096
4572 1 -4.04064 -14.4537 -16.3328 -4.04064 19.2036 -16.3328
8669 1 -3.1654 -15.2911 -15.9092 -3.1654 -15.2911 -15.9092
5221 1 -2.69021 -13.3221 -16.6124 -2.69021 20.3351 -16.6124
9099 1 -1.20333 -13.3456 -15.9061 -1.20333 -13.3456 -15.9061
15718 1 -0.972959 -14.9564 -16.0689 -0.972959 18.7008 -16.0689
4476 1 -0.106236 -14.1032 -11.8025 -0.106236 -14.1032 -11.8025
8749 1 -0.433629 -1.10079 -6.87434 -0.433629 -1.10079 -6.87434
15107 1 -14.4998 -13.6054 -15.9393 19.1574 -13.6054 17.7179
9407 1 -12.6785 -14.4269 -16.3913 20.9787 -14.4269 -16.3913
1251 1 -11.4209 -12.5615 -15.7548 -11.4209 21.0958 -15.7548
7042 1 -10.2429 -13.7038 -16.3935 -10.2429 19.9535 17.2638
11190 1 -10.1265 -13.266 -15.3077 -10.1265 -13.266 18.3496
1268 1 -9.70021 -15.2915 -12.2108 -9.70021 18.3658 -12.2108
4859 1 -8.17454 -13.5795 -16.0599 -8.17454 20.0777 -16.0599
729 1 -9.50761 -12.8405 -16.3126 -9.50761 -12.8405 17.3447
6523 1 -7.53966 -12.4 -16.4298 -7.53966 21.2572 17.2275
7848 1 -8.46848 -12.5242 -15.2788 -8.46848 21.133 18.3784
8868 1 -6.84304 -14.3683 -15.9928 -6.84304 -14.3683 -15.9928
1690 1 -4.94166 -1.38061 -16.4712 -4.94166 -1.38061 -16.4712
8255 1 -3.674 -13.4109 -15.7006 -3.674 -13.4109 -15.7006
13157 1 -2.70621 -12.485 -15.5697 -2.70621 21.1723 -15.5697
13080 1 -1.09569 -7.64973 -15.7046 -1.09569 26.0075 -15.7046
1378 1 -5.44159 -16.45 -6.82723 -5.44159 -16.45 -6.82723
1871 1 -15.397 -11.4065 -16.7286 -15.397 -11.4065 16.9287
3581 1 -13.2014 -13.9849 -15.0842 -13.2014 -13.9849 18.5731
1566 1 -14.2011 -11.6698 -15.8093 -14.2011 -11.6698 -15.8093
3519 1 -11.6245 -11.1989 -15.7836 -11.6245 -11.1989 17.8737
7426 1 -4.50517 -16.0579 -3.09686 -4.50517 17.5993 -3.09686
6529 1 -8.41027 -11.5539 -16.2689 -8.41027 -11.5539 17.3883
10691 1 -4.67914 -13.0109 -15.843 28.9781 -13.0109 17.8142
1925 1 -3.6533 -12.5822 -16.6703 -3.6533 -12.5822 -16.6703
4597 1 -7.60406 -4.21709 -16.5565 -7.60406 -4.21709 -16.5565
2298 1 -2.68602 -11.8187 -16.8045 -2.68602 -11.8187 16.8527
5746 1 -14.7822 -0.174809 -4.42486 -14.7822 -0.174809 -4.42486
2505 1 -8.78482 -2.69296 -16.6011 -8.78482 -2.69296 17.0561
1527 1 -16.3058 -11.0987 -15.2432 -16.3058 -11.0987 -15.2432
603 1 -14.095 -10.03 -16.8237 -14.095 -10.03 -16.8237
16213 1 -2.5108 -0.00667847 -1.07933 -2.5108 -0.00667847 -1.07933
11155 1 -10.0895 -0.588898 -1.92735 -10.0895 -0.588898 -1.92735
1490 1 -15.6395 -16.4672 -7.91507 -15.6395 -16.4672 -7.91507
12827 1 -12.8924 -11.5772 -15.4772 -12.8924 22.0801 -15.4772
13055 1 -16.3526 -16.4415 -5.37331 17.3046 17.2157 -5.37331
1175 1 -11.4125 -10.1385 -15.1191 -11.4125 -10.1385 -15.1191
3722 1 -8.05157 -10.3912 -15.4364 -8.05157 -10.3912 18.2209
5873 1 -8.83547 -0.821936 -10.8062 -8.83547 -0.821936 -10.8062
8860 1 -4.71094 -11.6788 -15.5483 -4.71094 -11.6788 -15.5483
3551 1 -4.32314 -10.4224 -15.1113 -4.32314 -10.4224 -15.1113
1732 1 -3.34352 -9.95586 -16.6868 -3.34352 -9.95586 -16.6868
10961 1 -1.98099 -10.2163 -16.4495 -1.98099 -10.2163 17.2077
8956 1 -0.666677 -10.9717 -16.5194 -0.666677 -10.9717 -16.5194
6400 1 -0.819043 -7.78689 -4.79066 -0.819043 25.8704 -4.79066
9565 1 -9.42446 -16.7468 -5.86732 -9.42446 -16.7468 -5.86732
179 1 -12.8306 -9.01136 -16.1326 -12.8306 -9.01136 -16.1326
10609 1 -16.5616 -0.011 -2.48052 17.0956 -0.011 -2.48052
5503 1 -10.9501 -9.67838 -16.3133 -10.9501 23.9789 -16.3133
4034 1 -10.1992 -8.51131 -16.5979 -10.1992 -8.51131 17.0593
1536 1 -8.37796 -9.01 -14.7565 -8.37796 -9.01 -14.7565
1305 1 -5.84677 -9.25087 -15.6004 -5.84677 -9.25087 -15.6004
9268 1 -16.566 -1.1383 -3.8797 17.0912 -1.1383 -3.8797
10054 1 -4.30085 -9.81373 -16.3488 -4.30085 -9.81373 -16.3488
2142 1 -2.20289 -1.57018 -14.1928 -2.20289 -1.57018 19.4645
11149 1 -2.9575 -8.96806 -16.5267 -2.9575 -8.96806 17.1306
11584 1 -1.68815 -8.13754 -14.8627 -1.68815 -8.13754 18.7945
282 1 -6.38938 0.00379922 -11.7281 -6.38938 0.00379922 -11.7281
53 1 -13.5458 -7.87712 -15.5778 -13.5458 -41.5344 -15.5778
14935 1 -12.5452 -7.88164 -15.9867 -12.5452 -7.88164 17.6705
12800 1 -0.323885 -1.9857 -15.4367 -0.323885 -1.9857 -15.4367
12522 1 -11.4042 -7.77052 -16.3999 -11.4042 -7.77052 -16.3999
7639 1 -6.14825 -8.25756 -16.4596 -6.14825 -8.25756 17.1977
4295 1 -4.32671 -7.27313 -15.2811 -4.32671 -7.27313 -15.2811
1469 1 -7.52029 -0.496708 -0.777564 -7.52029 -0.496708 -0.777564
8503 1 -2.70296 -8.05273 -16.0316 -2.70296 -8.05273 -16.0316
3511 1 -15.7221 -5.62926 -16.154 -15.7221 -5.62926 17.5033
1965 1 -14.5029 -4.59989 -16.2171 -14.5029 -4.59989 -16.2171
8361 1 -1.5442 -0.750464 -15.3584 -1.5442 -34.4077 -15.3584
6334 1 -13.0143 -6.55211 -15.4221 -13.0143 -6.55211 18.2351
6982 1 -12.0149 -6.25238 -16.3197 -12.0149 -6.25238 17.3376
2261 1 -9.46719 -7.78932 -15.6672 -9.46719 -7.78932 17.9901
11538 1 -8.42711 -7.02243 -15.559 25.2301 -7.02243 18.0983
2611 1 -7.08105 -6.01855 -15.4173 -7.08105 -6.01855 18.24
4465 1 -2.03606 -16.5365 -11.3533 -2.03606 17.1207 -11.3533
2873 1 -6.53834 -6.55437 -16.2238 -6.53834 -6.55437 17.4335
4715 1 -5.00739 -7.4108 -16.6863 -5.00739 26.2465 -16.6863
81 1 -3.47782 -5.63324 -16.7099 -3.47782 -5.63324 -16.7099
5386 1 -2.42308 -7.00321 -15.9403 -2.42308 26.654 -15.9403
64 1 -16.5926 -4.85547 -16.7774 -16.5926 -4.85547 -16.7774
10751 1 -15.6043 -4.79289 -15.5217 18.053 -4.79289 18.1355
3029 1 -12.0731 -4.54102 -16.6139 -12.0731 -4.54102 17.0434
1078 1 -7.09223 -3.24481 -0.702417 -7.09223 -3.24481 -0.702417
10069 1 -12.7256 -4.9294 -15.5043 20.9316 -4.9294 -15.5043
15717 1 -13.7738 -0.222103 -7.31479 19.8835 -0.222103 -7.31479
1639 1 -10.1334 -5.7844 -15.8187 -10.1334 -5.7844 -15.8187
6 1 -9.89013 -5.0771 -14.7864 -9.89013 -5.0771 -14.7864
8191 1 -8.14705 -6.22473 -16.3881 -8.14705 -6.22473 17.2691
1912 1 -9.61806 -4.76863 -16.1019 -9.61806 -4.76863 -16.1019
4995 1 -6.93002 -5.35978 -16.2297 -6.93002 -5.35978 -16.2297
621 1 -5.77625 -4.73457 -14.8458 -5.77625 -4.73457 -14.8458
10259 1 -4.23181 -4.96429 -14.7941 -4.23181 -4.96429 -14.7941
13563 1 -3.61495 -3.9998 -15.1663 -3.61495 -3.9998 -15.1663
10316 1 -1.89016 -6.46611 -16.6082 -1.89016 -6.46611 17.0491
11978 1 -1.58631 -5.28752 -15.0519 -1.58631 -5.28752 18.6053
1707 1 -16.6584 -3.46348 -15.7733 -16.6584 -3.46348 -15.7733
8484 1 -5.30293 -0.17348 -1.99887 -5.30293 -0.17348 -1.99887
6501 1 -14.735 -3.23249 -16.5709 -14.735 -3.23249 17.0864
12023 1 -0.369342 -1.83101 -2.24457 -0.369342 -1.83101 -2.24457
2303 1 -11.2735 -3.33089 -16.4472 -11.2735 -3.33089 17.2101
12887 1 -16.1182 -2.86629 -4.26591 17.539 -2.86629 -4.26591
4724 1 -10.6071 -3.41741 -15.5059 -10.6071 -3.41741 -15.5059
3363 1 -9.55664 -4.16212 -15.0202 -9.55664 -4.16212 18.6371
8056 1 -7.1975 -4.471 -15.4088 -7.1975 -4.471 18.2485
3424 1 -5.49417 -3.95271 -16.1352 -5.49417 -3.95271 17.522
160 1 -7.08325 -3.10728 -16.0976 -7.08325 -3.10728 -16.0976
6214 1 -4.23329 -3.63806 -16.024 -4.23329 -3.63806 17.6333
4308 1 -6.18765 -0.650081 -9.2028 -6.18765 -0.650081 -9.2028
15509 1 -2.50227 -4.59126 -15.6044 -2.50227 -4.59126 18.0529
13292 1 -1.18067 -3.666 -15.9637 -1.18067 -3.666 -15.9637
4522 1 -2.02273 -2.72931 -15.3241 -2.02273 -2.72931 -15.3241
6399 1 -0.818043 -1.3836 -0.977058 -0.818043 -1.3836 -0.977058
4094 1 -15.7799 -2.82143 -16.2712 -15.7799 -2.82143 -16.2712
4740 1 -3.77243 -0.100797 -8.85269 -3.77243 -0.100797 -8.85269
9339 1 -14.7728 -3.96629 -14.8455 18.8845 -3.96629 -14.8455
4349 1 -12.7584 -1.48509 -15.1128 -12.7584 -1.48509 -15.1128
13690 1 -11.3308 -1.90879 -16.1756 22.3265 -1.90879 -16.1756
12420 1 -9.71853 -0.827714 -16.4777 23.9387 -0.827714 -16.4777
1882 1 -7.91083 -1.22209 -15.1501 -7.91083 -1.22209 -15.1501
2110 1 -7.68331 -1.74845 -16.2504 -7.68331 -1.74845 17.4068
4994 1 -6.25613 -1.8195 -16.5385 -6.25613 -1.8195 -16.5385
9855 1 -1.32781 -4.71392 -1.62896 -1.32781 -4.71392 -1.62896
5248 1 -5.12736 -2.63021 -16.4133 -5.12736 -2.63021 -16.4133
2049 1 -2.98251 -3.18306 -16.5181 -2.98251 -3.18306 17.1392
10370 1 -1.4156 -1.6565 -16.8489 -1.4156 -1.6565 16.8084
10950 1 -8.60418 -0.197176 -2.88134 25.0531 -0.197176 -2.88134
11013 1 -14.2766 -1.82651 -15.7588 19.3806 -1.82651 17.8985
9060 1 -15.5099 -0.531947 -15.7966 18.1474 -0.531947 -15.7966
10769 1 -16.7139 -9.86574 -9.50971 16.9433 -9.86574 24.1475
6772 1 -16.5278 -7.55398 -13.8096 -16.5278 -7.55398 19.8477
3869 1 -11.642 -0.784159 -16.3933 -11.642 -0.784159 17.264
9436 1 -14.6662 -0.0685597 -1.97313 18.9911 -0.0685597 -1.97313
4437 1 -6.23602 -16.0632 -2.94113 -6.23602 17.594 -2.94113
14198 1 -0.493451 -3.50167 -4.29983 -0.493451 -3.50167 -4.29983
5308 1 -6.38364 -1.29967 -15.4768 -6.38364 -1.29967 -15.4768
1093 1 -5.01685 -0.878126 -15.2234 -5.01685 -0.878126 -15.2234
7035 1 -4.23418 -15.7016 -16.5109 -4.23418 17.9556 17.1463
1986 1 -2.72595 -1.54228 -16.2035 -2.72595 -1.54228 -16.2035
10140 1 -2.20654 -0.28139 -16.0457 -2.20654 -0.28139 -16.0457
8362 1 -7.34927 -6.95489 -16.7156 26.308 -6.95489 -16.7156
1884 1 -1.29058 -5.51126 -16.1605 -1.29058 -5.51126 -16.1605
7047 1 -11.8181 -5.38527 -0.0583122 21.8391 -5.38527 -0.0583122
6579 1 -12.4668 -12.0204 -16.3719 -12.4668 21.6369 17.2853
15121 1 -13.0034 -16.1688 -15.3191 20.6539 17.4884 18.3381
7298 1 -0.454883 -3.87029 -1.3039 -0.454883 -3.87029 32.3534
4514 1 -10.6362 -15.4656 -16.1242 -10.6362 18.1916 -16.1242
12986 1 -12.1389 -16.2932 -14.3276 -12.1389 17.364 -14.3276
10044 1 -9.38528 -15.6516 -14.7006 -9.38528 18.0056 -14.7006
1171 1 -8.38028 -16.5442 -14.3172 -42.0375 -16.5442 -14.3172
13132 1 -0.0856558 -0.548208 -1.38797 -0.0856558 -0.548208 -1.38797
472 1 -6.17751 -15.0909 -13.8676 -6.17751 -15.0909 -13.8676
10321 1 -4.51485 -16.0811 -14.2922 -4.51485 -16.0811 19.3651
4720 1 -3.28229 -15.4614 -14.4197 -3.28229 18.1958 -14.4197
2354 1 -2.09177 -15.9205 -14.8131 -2.09177 -15.9205 18.8442
6113 1 -1.25102 -16.4384 -15.2785 -1.25102 17.2189 -15.2785
2454 1 -0.462715 -11.9903 -0.46489 -0.462715 -11.9903 -0.46489
1438 1 -9.48533 -9.73985 -16.365 -9.48533 -9.73985 -16.365
3255 1 -0.486351 -7.42461 -7.06531 -0.486351 -7.42461 -7.06531
13955 1 -15.8222 -13.8459 -14.606 17.8351 19.8114 -14.606
9236 1 -15.9441 -14.6589 -13.6309 17.7131 -14.6589 -13.6309
554 1 -13.5316 -14.7149 -15.8558 -13.5316 -14.7149 -15.8558
2429 1 -14.5896 -15.0513 -13.7932 -14.5896 -15.0513 19.8641
2372 1 -14.0164 -14.1067 -14.1627 -14.0164 -14.1067 19.4946
14445 1 -10.9689 -15.2613 -13.8962 22.6883 18.396 19.761
15064 1 -9.90028 -14.7403 -14.924 23.757 -14.7403 18.7333
4124 1 -10.0709 -14.8405 -13.7844 -10.0709 18.8168 -13.7844
5916 1 -5.22472 -15.355 -14.3808 -5.22472 18.3022 -14.3808
8719 1 -3.83205 -14.6417 -15.0231 -3.83205 -14.6417 -15.0231
12146 1 -2.6676 -13.8751 -15.1845 -2.6676 -13.8751 18.4728
7898 1 -0.53934 -15.1092 -14.5571 -0.53934 18.548 19.1002
9415 1 -16.369 -12.4308 -14.7107 17.2882 -12.4308 -14.7107
9057 1 -0.403731 -11.4586 -9.98751 -0.403731 -11.4586 -9.98751
1176 1 -14.9843 -13.2258 -14.4363 -14.9843 -13.2258 -14.4363
14187 1 -11.582 -13.6142 -14.793 22.0753 20.043 -14.793
4054 1 -9.14126 -13.6761 -15.0319 -9.14126 -13.6761 18.6253
13813 1 -9.29979 -11.8871 -15.8024 24.3575 21.7701 -15.8024
4147 1 -7.77656 -13.0619 -14.316 -7.77656 20.5953 -14.316
74 1 -8.3311 -14.7645 -15.3415 -8.3311 -14.7645 -15.3415
9137 1 -7.10185 -13.3098 -15.3801 -7.10185 -13.3098 -15.3801
3482 1 -3.57782 -13.3889 -13.7885 -3.57782 20.2684 19.8688
3127 1 -5.70284 -13.3609 -15.0209 -5.70284 -13.3609 18.6363
13517 1 -3.52531 -12.3116 -13.3072 -3.52531 21.3456 -13.3072
12244 1 -1.89054 -11.5991 -16.0175 31.7667 -11.5991 17.6398
8922 1 -1.10826 -12.3123 -15.1537 -1.10826 -12.3123 -15.1537
8402 1 -4.01743 -11.0746 -16.2766 -4.01743 -11.0746 -16.2766
10488 1 -15.2301 -12.3249 -13.8761 18.4272 21.3323 19.7812
2051 1 -15.4078 -12.6406 -15.6566 -15.4078 -12.6406 18.0006
7900 1 -12.7593 -12.7183 -14.335 -12.7593 20.939 19.3223
7931 1 -15.1881 -11.1592 -14.3551 -15.1881 22.498 19.3021
1331 1 -10.1549 -12.1413 -14.4159 -10.1549 -12.1413 -14.4159
10172 1 -11.8698 -12.0588 -13.9379 21.7875 -12.0588 -13.9379
336 1 -9.39942 -12.3073 -13.4543 -9.39942 -12.3073 -13.4543
1461 1 -8.31735 -11.4414 -14.1226 -8.31735 -11.4414 -14.1226
15864 1 -6.86216 -12.2297 -14.1825 -6.86216 21.4276 19.4748
357 1 -5.95865 -12.336 -15.7919 -5.95865 -12.336 -15.7919
1429 1 -4.46727 -13.7426 -14.7076 -4.46727 -13.7426 -14.7076
12016 1 -4.35666 -11.4983 -14.5904 -4.35666 -11.4983 19.0668
6174 1 -3.41617 -11.4636 -13.9914 -3.41617 -11.4636 19.6659
9896 1 -1.99551 -11.2196 -14.9813 -1.99551 -11.2196 -14.9813
15834 1 -0.703987 -11.9427 -14.1493 -0.703987 -11.9427 19.508
11606 1 -16.5424 -11.3898 -14.0869 17.1148 -11.3898 -14.0869
933 1 -2.15573 -1.433 -0.299361 -2.15573 -1.433 -0.299361
2548 1 -15.1245 -10.6806 -15.258 -15.1245 -10.6806 18.3993
11856 1 -13.8333 -11.0564 -14.7299 19.824 -11.0564 18.9273
8215 1 -12.2796 -10.6143 -15.0923 -12.2796 23.043 18.565
2488 1 -11.4392 -11.7281 -14.8573 -11.4392 -11.7281 18.7999
4235 1 -10.2492 -11.0522 -15.32 -10.2492 22.6051 18.3373
733 1 -8.98037 -10.2117 -14.9897 -8.98037 -10.2117 -14.9897
8036 1 -6.50439 -11.5613 -15.1755 -6.50439 22.096 18.4818
3074 1 -6.27576 -10.5867 -14.348 -6.27576 -10.5867 19.3093
8173 1 -5.44455 -10.3825 -15.6522 -5.44455 23.2748 18.0051
389 1 -5.94769 -8.8737 -14.3334 -5.94769 -8.8737 -14.3334
9433 1 -3.21809 -12.6954 -14.6803 -3.21809 -12.6954 -14.6803
7037 1 -4.14881 -9.94945 -14.1288 -4.14881 23.7078 19.5285
6944 1 -3.13453 -10.5295 -15.6293 -3.13453 23.1278 18.028
6428 1 -1.59199 -10.0565 -15.0197 -1.59199 23.6007 18.6376
1375 1 -15.9537 -9.83921 -15.6403 -15.9537 -9.83921 -15.6403
10344 1 -15.0863 -8.94251 -14.8662 18.571 -8.94251 18.7911
13271 1 -14.3348 -9.86764 -15.5947 19.3225 23.7896 -15.5947
3528 1 -13.1221 -8.81841 -14.6289 -13.1221 -8.81841 -14.6289
13617 1 -11.9951 -8.66658 -15.377 -11.9951 24.9907 -15.377
808 1 -10.1414 -9.61137 -15.197 -10.1414 -9.61137 -15.197
12045 1 -11.1512 -8.65043 -14.5043 22.506 -8.65043 19.1529
1426 1 -6.5264 -10.667 -15.9427 -6.5264 -10.667 -15.9427
9124 1 -6.43406 -7.89034 -14.5747 -6.43406 -7.89034 -14.5747
10528 1 -3.01468 -9.18972 -13.8723 -3.01468 -9.18972 19.7849
751 1 -3.77899 -9.0019 -15.2976 -3.77899 -9.0019 -15.2976
15709 1 -0.11253 -9.84229 -15.3047 -0.11253 23.815 -15.3047
2361 1 -14.5601 -7.67369 -14.8945 -14.5601 -7.67369 18.7627
13260 1 -16.1754 -6.88293 -15.1316 17.4818 26.7743 -15.1316
15275 1 -14.0482 -8.05069 -13.7167 19.6091 -8.05069 19.9406
12226 1 -12.0111 -8.35428 -13.8526 -12.0111 -8.35428 19.8046
5423 1 -10.2509 -7.52299 -14.4873 -10.2509 -7.52299 -14.4873
2147 1 -9.08026 -7.56887 -14.353 -9.08026 -7.56887 19.3042
741 1 -9.94599 -6.31638 -13.3656 -9.94599 -6.31638 -13.3656
10984 1 -7.31844 -9.75056 -14.9214 26.3388 -9.75056 18.7359
12169 1 -7.53675 -8.31347 -14.169 -7.53675 -8.31347 -14.169
1760 1 -7.04501 -7.66096 -16.0592 -7.04501 -7.66096 -16.0592
503 1 -7.91806 -8.88757 -15.6888 -7.91806 -8.88757 -15.6888
1843 1 -5.74352 -7.68383 -15.423 -5.74352 -7.68383 -15.423
8083 1 -4.7161 -8.99707 -14.8943 -4.7161 -8.99707 18.7629
5261 1 -2.23898 -6.98192 -14.8504 -2.23898 -6.98192 -14.8504
11182 1 -1.79747 -7.93099 -13.378 -1.79747 -7.93099 20.2793
4619 1 -16.4683 -5.35752 -15.1355 -16.4683 -5.35752 -15.1355
13987 1 -15.281 -5.77974 -14.627 18.3763 -5.77974 -14.627
11708 1 -13.8191 -6.87927 -14.2992 -13.8191 -6.87927 19.3581
8057 1 -15.0315 -6.54854 -15.3724 -15.0315 -6.54854 -15.3724
335 1 -11.9079 -7.41951 -14.9892 -11.9079 -7.41951 -14.9892
5025 1 -10.6147 -7.06232 -15.4468 -10.6147 -7.06232 -15.4468
12503 1 -9.10541 -6.17272 -15.2011 24.5518 27.4845 -15.2011
11381 1 -4.70206 -5.98188 -15.595 28.9552 -5.98188 18.0623
1578 1 -4.43698 -6.7453 -13.8755 -4.43698 -6.7453 -13.8755
7366 1 -6.66921 -6.61325 -14.5256 -6.66921 -6.61325 19.1316
8505 1 -3.85139 -6.37416 -14.9671 -3.85139 -6.37416 -14.9671
2324 1 -2.9592 -6.58688 -13.0841 -2.9592 -6.58688 20.5731
3015 1 -0.306887 -6.67918 -15.5047 -0.306887 -6.67918 18.1526
2250 1 -1.44236 -6.35154 -15.008 -1.44236 -6.35154 18.6492
10749 1 -4.56515 -13.615 -16.7811 -4.56515 -13.615 -16.7811
4711 1 -14.086 -5.54086 -15.0007 -14.086 28.1164 -15.0007
480 1 -11.9411 -6.09475 -15.1537 -11.9411 -6.09475 -15.1537
3070 1 -11.3107 -4.86556 -15.7711 -11.3107 -4.86556 17.8862
13798 1 -11.007 -5.0832 -14.5021 22.6502 28.5741 -14.5021
3405 1 -8.227 -5.05626 -15.817 -8.227 -5.05626 17.8403
1866 1 -8.15356 -5.39043 -14.3629 -8.15356 -5.39043 -14.3629
12350 1 -7.23604 -5.6396 -13.5198 -7.23604 28.0177 -13.5198
11792 1 -3.04191 -4.62276 -14.1863 -3.04191 -4.62276 19.4709
1625 1 -2.58936 -5.54558 -14.744 -2.58936 -5.54558 -14.744
9950 1 -2.31975 -5.41662 -13.4809 -2.31975 -5.41662 -13.4809
12615 1 -0.416989 -5.3609 -14.773 -0.416989 28.2964 -14.773
14908 1 -15.9915 -3.08439 -14.3441 17.6657 -3.08439 19.3131
12580 1 -14.3659 -5.06572 -13.8347 -14.3659 -5.06572 -13.8347
4176 1 -14.9686 -3.60656 -13.8256 -14.9686 -3.60656 -13.8256
11112 1 -13.5215 -4.0482 -15.6388 20.1357 -4.0482 18.0185
9678 1 -12.1366 -4.16562 -14.6453 21.5206 -4.16562 -14.6453
2264 1 -9.65295 -4.28477 -13.9833 -9.65295 -4.28477 19.6739
11676 1 -8.14289 -3.666 -13.7907 25.5144 -3.666 19.8666
3263 1 -6.97206 -4.4184 -14.3542 -6.97206 -4.4184 19.3031
4345 1 -6.92801 -2.50713 -15.0298 -6.92801 -2.50713 -15.0298
696 1 -5.57877 -3.18745 -15.1189 -5.57877 -3.18745 -15.1189
7275 1 -2.45666 -3.54891 -14.1439 -2.45666 30.1083 19.5134
9673 1 -1.87235 -3.46849 -13.2866 -1.87235 -3.46849 -13.2866
5834 1 -0.660487 -2.13619 -14.2927 -0.660487 -2.13619 -14.2927
8716 1 -0.705088 -3.13331 -15.1682 -0.705088 -3.13331 -15.1682
5841 1 -16.7762 -2.46505 -14.3261 -16.7762 -2.46505 -14.3261
13423 1 -16.5256 -4.19697 -13.5546 17.1317 -4.19697 -13.5546
323 1 -15.0906 -2.33447 -14.9378 -15.0906 -2.33447 -14.9378
4973 1 -14.0766 -2.06 -14.6843 -14.0766 -2.06 -14.6843
15950 1 -13.6644 -2.66243 -16.3427 19.9928 -2.66243 17.3145
4789 1 -12.4473 -3.55143 -15.5484 -12.4473 -3.55143 -15.5484
1894 1 -12.8994 -2.81429 -14.3515 -12.8994 -2.81429 -14.3515
15923 1 -9.66549 -2.57989 -15.8548 23.9918 -2.57989 17.8024
6303 1 -11.5067 -2.26099 -14.9195 -11.5067 -2.26099 18.7378
10037 1 -11.0343 -3.0775 -14.1773 -11.0343 -3.0775 -14.1773
12912 1 -8.7194 -1.75374 -14.3665 24.9379 -1.75374 19.2908
5385 1 -4.35257 -2.08199 -14.6501 -4.35257 -2.08199 -14.6501
5575 1 -3.63623 -2.10467 -15.4764 -3.63623 -2.10467 -15.4764
5941 1 -1.34746 -1.82773 -15.3794 -1.34746 -1.82773 -15.3794
8786 1 -12.5537 -13.4169 -16.3033 21.1036 -13.4169 -16.3033
9266 1 -13.5291 -0.794486 -14.4167 20.1282 -0.794486 -14.4167
7160 1 -13.9585 -0.703977 -16.1717 -13.9585 -0.703977 17.4856
2240 1 -0.0777559 -2.67169 -3.7466 -0.0777559 -2.67169 -3.7466
11507 1 -10.8652 -0.687116 -15.6575 22.7921 -0.687116 17.9997
914 1 -10.2525 -1.97343 -14.3467 -10.2525 -1.97343 -14.3467
13678 1 -9.84007 -0.940158 -14.6752 -9.84007 -0.940158 -14.6752
5740 1 -8.04683 -0.22044 -14.9674 -8.04683 -0.22044 -14.9674
9756 1 -8.86387 -1.59306 -15.6077 24.7934 -35.2503 -15.6077
6851 1 -6.20678 -0.872652 -14.0496 -6.20678 -0.872652 19.6077
5010 1 -16.6548 -11.0523 -9.88306 -16.6548 22.605 -9.88306
3747 1 -3.05637 -0.676454 -15.0684 -3.05637 -0.676454 18.5889
11163 1 -0.684154 -0.969551 -14.1015 -0.684154 -0.969551 19.5558
1119 1 -0.425136 -0.64252 -16.0337 -0.425136 -0.64252 -16.0337
3427 1 -16.6413 -16.509 -11.953 -16.6413 -16.509 -11.953
3569 1 -0.854938 -15.2783 -9.28142 -0.854938 -15.2783 24.3758
9308 1 -14.438 -16.6877 -13.4192 19.2193 -16.6877 -13.4192
761 1 -14.1865 -14.8356 -12.5426 -14.1865 -14.8356 -12.5426
9535 1 -15.2753 -16.1991 -14.3955 18.382 -16.1991 -14.3955
1924 1 -12.6807 -15.1345 -13.485 -12.6807 -15.1345 -13.485
1291 1 -7.91371 -16.4697 -11.1136 -7.91371 -16.4697 -11.1136
11325 1 -11.3228 -16.149 -13.2702 22.3344 -16.149 20.387
3110 1 -9.31054 -15.8066 -13.4041 -9.31054 -15.8066 20.2531
462 1 -7.86968 -16.4683 -12.6538 -7.86968 -16.4683 -12.6538
1968 1 -6.7795 -16.5289 -13.1033 -6.7795 -16.5289 -13.1033
9119 1 -7.29612 -15.9892 -14.2624 -7.29612 -15.9892 -14.2624
727 1 -5.6872 -14.9723 -12.924 -5.6872 -14.9723 -12.924
6769 1 -5.53977 -16.5891 -13.6348 -5.53977 -16.5891 20.0224
12371 1 -3.11391 -16.449 -12.3088 -3.11391 17.2082 -12.3088
3335 1 -1.72139 -15.816 -13.732 -1.72139 -15.816 -13.732
15661 1 -0.204846 -15.9179 -13.4434 33.4524 17.7394 -13.4434
1810 1 -15.5422 -15.7817 -13.0316 -15.5422 -15.7817 -13.0316
7746 1 -13.0019 -14.1189 -12.8777 -13.0019 -14.1189 20.7796
4402 1 -14.4576 -13.8624 -12.0005 -14.4576 19.7948 -12.0005
13957 1 -11.957 -14.3525 -13.1871 21.7002 19.3048 -13.1871
13367 1 -9.41569 -14.3276 -11.9757 24.2416 19.3297 -11.9757
4794 1 -10.6692 -14.2066 -12.7111 -10.6692 19.4507 -12.7111
1743 1 -8.47461 -15.1104 -12.8005 -8.47461 -15.1104 -12.8005
5217 1 -8.06615 -13.5952 -13.1327 -8.06615 20.062 -13.1327
9845 1 -8.63106 -15.0399 -14.1728 25.0262 -15.0399 -14.1728
523 1 -7.43591 -14.5817 -14.0722 -7.43591 -14.5817 -14.0722
5700 1 -4.32966 -14.717 -13.5902 -4.32966 18.9402 -13.5902
8261 1 -2.62813 -15.5397 -13.3086 31.0291 -15.5397 -13.3086
2126 1 -1.95147 -14.558 -14.3909 -1.95147 -14.558 19.2663
7719 1 -0.173868 -14.4967 -13.2192 -0.173868 19.1606 20.438
12752 1 -8.83063 -1.84043 -0.664473 24.8266 -1.84043 -0.664473
13535 1 -16.5858 -14.1766 -12.6651 17.0714 19.4806 -12.6651
2399 1 -15.0337 -13.0762 -12.5525 -15.0337 -13.0762 21.1047
5296 1 -13.6787 -12.1859 -14.8955 -13.6787 21.4714 -14.8955
15396 1 -13.7276 -13.0803 -13.589 19.9296 20.5769 20.0683
12677 1 -12.8677 -12.0119 -13.1555 20.7895 21.6454 -13.1555
8850 1 -12.2174 -13.3553 -12.9718 21.4398 -13.3553 -12.9718
6436 1 -10.6189 -13.0807 -11.8033 -10.6189 20.5765 21.854
1435 1 -10.3532 -13.5885 -14.2147 -10.3532 -13.5885 -14.2147
10492 1 -10.509 -12.3492 -13.2282 23.1483 -12.3492 20.429
5136 1 -9.30886 -13.5383 -13.1386 -9.30886 20.119 -13.1386
14378 1 -7.25827 -14.2486 -12.4841 -7.25827 -14.2486 21.1732
5100 1 -5.39707 -13.885 -14.0706 -5.39707 19.7722 -14.0706
3683 1 -4.82573 -13.1967 -12.9027 -4.82573 -13.1967 20.7546
12351 1 -2.91482 -14.044 -13.3773 30.7424 19.6132 -13.3773
2710 1 -3.86719 -12.7627 -12.2541 -3.86719 -12.7627 21.4032
7644 1 -2.00527 -13.1404 -14.1371 -2.00527 20.5169 19.5202
9859 1 -0.649912 -13.647 -13.9319 -0.649912 -13.647 -13.9319
8734 1 -15.8293 -12.4288 -12.989 17.8279 -12.4288 -12.989
397 1 -11.4884 -12.6564 -12.3646 -11.4884 -12.6564 -12.3646
767 1 -10.6976 -11.1884 -13.7955 -10.6976 -11.1884 -13.7955
5290 1 -8.14329 -11.8692 -13.0555 -8.14329 -11.8692 -13.0555
13962 1 -6.0447 -13.0726 -13.7136 27.6126 -13.0726 -13.7136
951 1 -6.91964 -12.024 -12.9865 -6.91964 -12.024 -12.9865
8018 1 -6.09864 -12.5989 -11.9382 -6.09864 21.0584 -11.9382
5990 1 -5.38068 -12.2842 -14.6857 -5.38068 -12.2842 -14.6857
6994 1 -4.95926 -11.8331 -13.3599 -4.95926 -11.8331 20.2973
4386 1 -5.04975 -10.7184 -12.0557 -5.04975 -10.7184 -12.0557
7430 1 -2.92348 -11.9211 -12.4496 -2.92348 -11.9211 21.2077
4680 1 -1.77064 -12.0041 -13.8546 -1.77064 21.6531 -13.8546
1665 1 -1.43474 -11.4611 -12.3837 -1.43474 -11.4611 -12.3837
849 1 -14.531 -10.5708 -13.3993 -14.531 -10.5708 -13.3993
6302 1 -13.3057 -10.9522 -13.6205 -13.3057 22.7051 -13.6205
9443 1 -13.0905 -9.65121 -12.2765 20.5667 -9.65121 -12.2765
14266 1 -14.3397 -11.8747 -13.3518 19.3176 21.7825 -13.3518
2658 1 -12.3232 -11.4534 -12.5136 -12.3232 -11.4534 21.1436
5720 1 -10.3689 -9.70798 -13.87 -10.3689 23.9493 -13.87
12935 1 -10.6671 -10.609 -12.8967 22.9902 -10.609 -12.8967
6380 1 -8.09776 -10.3542 -14.0402 -8.09776 -10.3542 -14.0402
3131 1 -7.98665 -10.341 -12.3083 -7.98665 -10.341 -12.3083
9599 1 -5.82621 -9.46345 -12.51 -5.82621 -9.46345 -12.51
1895 1 -4.96066 -10.5641 -14.0321 -4.96066 -10.5641 -14.0321
4581 1 -3.11886 -10.7416 -12.9455 -3.11886 -10.7416 -12.9455
7279 1 -2.0752 -10.7373 -13.8987 -2.0752 -10.7373 -13.8987
8415 1 -2.55201 -9.29428 -15.1452 -2.55201 -9.29428 -15.1452
9183 1 -0.824223 -10.758 -13.5845 -0.824223 -10.758 -13.5845
15631 1 -15.589 -10.148 -13.6183 18.0682 23.5093 20.039
12056 1 -14.0228 -9.50447 -14.2195 -14.0228 -9.50447 19.4377
12515 1 -13.2635 -8.69143 -10.4611 20.3938 24.9658 -10.4611
10043 1 -14.7644 -8.9378 -13.2654 18.8929 -8.9378 -13.2654
5986 1 -13.087 -9.88936 -13.8109 -13.087 -9.88936 -13.8109
1444 1 -12.0564 -10.671 -13.5324 -12.0564 -10.671 -13.5324
12587 1 -10.5229 -8.8487 -13.3783 23.1343 -8.8487 -13.3783
2736 1 -9.97931 -7.48812 -13.456 -9.97931 -7.48812 20.2013
6929 1 -10.7547 -8.43706 -12.031 -10.7547 -8.43706 -12.031
11712 1 -9.7178 -10.9284 -13.1224 23.9395 -10.9284 20.5348
1687 1 -6.9084 -8.95097 -13.4378 -6.9084 -8.95097 -13.4378
1017 1 -4.69418 -9.11643 -13.7883 -4.69418 -9.11643 -13.7883
7070 1 -4.04436 -8.90654 -12.6903 -4.04436 -8.90654 20.967
12340 1 -2.54869 -9.24358 -12.8611 -2.54869 -9.24358 20.7962
310 1 -2.87793 -8.39849 -14.6663 -2.87793 -8.39849 -14.6663
654 1 -2.4388 -0.217575 -11.2745 -2.4388 -0.217575 -11.2745
9300 1 -0.177181 -8.48405 -12.546 -0.177181 -8.48405 -12.546
616 1 -0.554816 -9.08194 -14.5063 -0.554816 -9.08194 -14.5063
5994 1 -16.1529 -8.84604 -13.0299 -16.1529 24.8112 -13.0299
2398 1 -11.9153 -6.50485 -12.3068 -11.9153 -6.50485 21.3505
10003 1 -11.202 -7.58194 -13.4153 22.4553 -7.58194 -13.4153
11445 1 -7.20752 -7.52798 -13.0826 26.4497 -7.52798 20.5746
740 1 -9.52942 -8.96081 -13.9889 -9.52942 -8.96081 -13.9889
3004 1 -5.21751 -6.99682 -14.6501 -5.21751 -6.99682 19.0072
797 1 -2.27908 -7.34557 -12.7431 -2.27908 -7.34557 -12.7431
5563 1 -3.05359 -7.0031 -14.1947 -3.05359 -7.0031 -14.1947
13477 1 -1.43554 -6.46117 -12.582 -1.43554 27.1961 -12.582
8500 1 -15.1434 -7.84612 -13.8211 18.5139 -7.84612 -13.8211
13208 1 -15.6783 -7.15484 -12.5302 17.979 -7.15484 -12.5302
9927 1 -15.268 -6.59153 -13.8253 18.3892 -6.59153 -13.8253
12159 1 -13.5957 -6.88058 -12.8025 -13.5957 -6.88058 20.8547
8524 1 -12.3402 -6.51807 -13.6119 21.3171 -6.51807 -13.6119
793 1 -11.4978 -5.78338 -13.6026 -11.4978 -5.78338 -13.6026
1841 1 -10.444 -6.49696 -12.3569 -10.444 -6.49696 -12.3569
1975 1 -9.27817 -5.77588 -14.2224 -9.27817 -5.77588 -14.2224
618 1 -8.25113 -6.2085 -13.1116 25.4061 -6.2085 -13.1116
205 1 -7.92668 -6.47749 -14.2397 -7.92668 -6.47749 -14.2397
4172 1 -6.80893 -6.54254 -12.8584 -6.80893 27.1147 -12.8584
14616 1 -5.6667 -6.2249 -13.6275 -5.6667 -6.2249 20.0298
4205 1 -6.85999 -4.50048 -13.3288 -6.85999 29.1568 -13.3288
10070 1 -4.87943 -6.09222 -11.4552 -4.87943 -6.09222 -11.4552
2117 1 -3.60191 -5.68538 -13.2379 -3.60191 -5.68538 -13.2379
10764 1 -2.87745 -5.93197 -11.9871 30.7798 -5.93197 21.6702
1702 1 -1.04439 -6.00629 -13.9772 -1.04439 -6.00629 -13.9772
13829 1 -0.928092 -7.5848 -14.3949 -0.928092 -7.5848 -14.3949
3974 1 -15.9465 -5.30178 -13.0001 -15.9465 -5.30178 20.6571
42 1 -3.99828 -8.49634 -0.877997 -3.99828 -8.49634 -0.877997
9529 1 -15.3632 -4.25616 -12.7926 18.294 -4.25616 -12.7926
5279 1 -13.7438 -6.05664 -13.5845 -13.7438 -6.05664 -13.5845
7056 1 -13.4256 -5.00194 -12.7982 -13.4256 -5.00194 20.859
8744 1 -13.0149 -3.94073 -13.6777 20.6424 -3.94073 -13.6777
5522 1 -12.4403 -5.14139 -14.3366 -12.4403 -5.14139 -14.3366
12555 1 -10.8147 -3.14169 -12.3406 22.8426 -3.14169 -12.3406
8179 1 -10.7618 -5.15065 -12.9477 -10.7618 -5.15065 20.7095
2054 1 -9.83231 -4.53072 -12.5586 -9.83231 -4.53072 21.0986
22 1 -8.52622 -4.98527 -12.8789 -8.52622 -4.98527 -12.8789
5052 1 -5.42503 -3.70568 -12.4186 -5.42503 -3.70568 -12.4186
1408 1 -5.65338 -4.86468 -13.35 -5.65338 -4.86468 -13.35
287 1 -1.38543 -4.32959 -14.3176 -1.38543 29.3277 -14.3176
13163 1 -15.8612 -3.20168 -11.7135 17.7961 -3.20168 -11.7135
3763 1 -11.5866 -4.54122 -13.6209 -11.5866 -4.54122 20.0363
15602 1 -10.6442 -4.02843 -13.1701 23.013 -4.02843 20.4871
8616 1 -9.21046 -2.74221 -14.2339 -9.21046 -2.74221 -14.2339
1032 1 -6.97419 -3.15798 -13.2269 -6.97419 -3.15798 -13.2269
324 1 -5.45844 -3.27585 -13.9618 -5.45844 -3.27585 -13.9618
1590 1 -4.34095 -3.55637 -13.8025 -4.34095 -3.55637 -13.8025
16068 1 -4.487 -3.16578 -12.7571 29.1703 -3.16578 -12.7571
1076 1 -4.28171 -3.91373 -11.7348 -4.28171 -3.91373 -11.7348
6725 1 -3.3957 -2.99163 -12.7161 -3.3957 -2.99163 20.9412
8128 1 -13.0842 -0.978442 -16.627 -13.0842 -0.978442 17.0303
7670 1 -14.799 -2.42086 -12.3925 -14.799 -2.42086 21.2647
5178 1 -12.008 -2.20235 -13.1912 -12.008 -2.20235 -13.1912
8224 1 -11.7372 -3.39078 -12.8293 21.92 -37.048 -12.8293
1763 1 -10.0949 -2.29823 -12.9815 -10.0949 -2.29823 -12.9815
4983 1 -8.31089 -1.92119 -12.9429 -8.31089 -1.92119 -12.9429