ITEM: TIMESTEP
7000
ITEM: NUMBER OF ATOMS
16384
ITEM: BOX BOUNDS pp pp pp
-1.6828627036276380e+01 1.6828627036276380e+01
-1.6828627036276380e+01 1.6828627036276380e+01
-1.6828627036276380e+01 1.6828627036276380e+01
ITEM: ATOMS id type x y z xu yu zu
2462 1 -8.43535 -16.8079 -0.502866 -8.43535 -16.8079 -0.502866
1498 1 -13.8406 -11.2281 -0.442133 -13.8406 -11.2281 -0.442133
4470 1 -7.59643 -0.816808 -15.3435 -7.59643 -0.816808 -15.3435
2624 1 -12.3739 -15.4763 -15.4453 -12.3739 -15.4763 18.212
3795 1 -7.88241 -1.51651 -0.807078 -7.88241 -1.51651 -0.807078
5367 1 -10.5448 -15.6255 -15.3382 -10.5448 18.0318 -15.3382
5342 1 -7.26821 -15.8324 -15.708 -7.26821 17.8249 -15.708
6185 1 -6.0958 -16.3352 -14.0006 -6.0958 17.3221 19.6567
7130 1 -4.93351 -16.2723 -16.4722 -4.93351 17.385 17.1851
6022 1 -0.113849 -1.71006 -6.24006 -0.113849 31.9472 -6.24006
279 1 -16.6407 -3.5414 -2.09922 -16.6407 -3.5414 -2.09922
8260 1 -2.91402 -15.4724 -16.2391 -2.91402 -15.4724 -16.2391
3423 1 -1.73146 -15.6394 -15.9553 -1.73146 -15.6394 17.7019
5749 1 -3.22553 -16.781 -7.45234 -3.22553 16.8763 -7.45234
469 1 -14.7128 -16.0948 -14.7246 -14.7128 -16.0948 -14.7246
44 1 -14.6059 -14.7347 -15.8657 -14.6059 -14.7347 17.7915
14116 1 -6.9648 -6.199 -16.3089 26.6925 27.4583 -16.3089
8100 1 -13.8163 -14.9907 -15.0342 -47.4736 18.6665 18.623
14005 1 -0.0457268 -14.4867 -1.70935 -0.0457268 19.1705 -1.70935
15615 1 -12.1452 -13.9415 -16.4497 -12.1452 19.7157 17.2076
8557 1 -0.45614 -3.2936 -11.4972 -0.45614 -3.2936 -11.4972
7734 1 -9.25818 -13.6386 -16.7308 -9.25818 20.0186 16.9265
8662 1 -9.95889 -15.0891 -16.5106 23.6984 -15.0891 -16.5106
472 1 -7.94382 -14.1427 -15.8115 -7.94382 -14.1427 -15.8115
2561 1 -5.97491 -15.4718 -16.5444 -5.97491 -15.4718 17.1129
6416 1 -3.41629 -15.5695 -15.1248 -3.41629 18.0878 18.5325
15279 1 -2.52617 -13.5472 -16.7944 -2.52617 20.1101 16.8629
4947 1 -2.25446 -16.6577 -16.1186 -2.25446 16.9995 -16.1186
9432 1 -1.39915 -14.0003 -15.8381 -1.39915 -14.0003 -15.8381
9277 1 -8.16741 -0.0714424 -9.00829 -8.16741 -0.0714424 -9.00829
3581 1 -13.4331 -14.0202 -15.8001 -13.4331 -14.0202 17.8571
1812 1 -11.8294 -14.1894 -14.5306 -11.8294 -14.1894 -14.5306
2488 1 -9.01637 -13.476 -13.4775 -9.01637 -13.476 20.1798
3722 1 -9.8281 -13.0247 -15.6557 -9.8281 -13.0247 18.0015
1535 1 -8.82339 -13.6533 -15.4798 -8.82339 -13.6533 18.1775
8264 1 -7.12958 -16.4605 -5.86717 26.5277 17.1967 -5.86717
1723 1 -6.48392 -14.181 -15.5598 -6.48392 -14.181 -15.5598
908 1 -11.0607 -16.2252 -8.26243 -11.0607 -16.2252 -8.26243
1925 1 -4.49326 -14.4415 -15.0174 -4.49326 -14.4415 -15.0174
4689 1 -5.7938 -13.3288 -14.9174 -5.7938 -13.3288 -14.9174
2501 1 -2.15698 -16.7227 -15.0553 -2.15698 -16.7227 18.6019
9859 1 -3.65486 -12.9005 -16.6264 -3.65486 -12.9005 -16.6264
9099 1 -0.436532 -12.4653 -16.5183 -0.436532 -12.4653 -16.5183
6493 1 -0.024433 -13.1374 -15.773 -0.024433 20.5198 17.8842
4034 1 -12.1337 -8.12691 -16.1889 -12.1337 -8.12691 17.4684
1978 1 -16.7018 -12.7976 -16.5484 -16.7018 -12.7976 -16.5484
3649 1 -14.9721 -13.0306 -15.9483 -14.9721 -13.0306 17.7089
4219 1 -13.8714 -13.3135 -14.8674 -13.8714 20.3438 -14.8674
7042 1 -13.079 -12.8895 -15.9947 -13.079 20.7678 17.6625
11190 1 -12.0035 -12.5601 -16.6531 -12.0035 -12.5601 17.0041
6529 1 -7.90019 -12.0069 -16.2257 -7.90019 -12.0069 17.4315
7530 1 -11.1109 -13.7623 -16.7192 -11.1109 -13.7623 16.9381
4817 1 -6.52675 -11.8426 -15.5465 -6.52675 21.8147 -15.5465
4687 1 -6.5755 -13.0464 -15.9658 -6.5755 20.6108 -15.9658
6275 1 -5.47663 -12.0983 -16.0441 -5.47663 -12.0983 -16.0441
6944 1 -1.6122 -12.6219 -15.5621 -1.6122 21.0354 18.0951
12478 1 -7.20037 -16.7858 -14.6546 26.4569 16.8714 -14.6546
9190 1 -14.8644 -10.1125 -15.4315 18.7929 -10.1125 18.2257
179 1 -13.2516 -11.502 -16.0298 -13.2516 -11.502 -16.0298
2341 1 -11.6062 -11.1729 -16.2732 -11.6062 -11.1729 17.3841
4193 1 -5.53193 -16.7547 -10.5187 -5.53193 16.9026 -10.5187
6523 1 -9.8929 -9.3837 -16.3655 -9.8929 24.2736 17.2917
13384 1 -0.256217 -2.42276 -14.8885 -0.256217 -2.42276 18.7688
15431 1 -13.5145 -0.201942 -3.66654 20.1428 -0.201942 -3.66654
9790 1 -7.96004 -10.9706 -16.1254 -7.96004 -10.9706 -16.1254
10749 1 -6.48301 -9.74776 -16.777 -6.48301 -9.74776 -16.777
8083 1 -5.66736 -10.3768 -15.2951 -5.66736 -10.3768 18.3621
1524 1 -4.05481 -9.74369 -15.5967 -4.05481 -9.74369 -15.5967
14517 1 -13.4183 -2.54253 -0.968486 20.2389 -2.54253 -0.968486
9890 1 -2.61996 -10.7477 -15.7078 -2.61996 -10.7477 -15.7078
7037 1 -1.5892 -11.0683 -16.7547 -1.5892 22.5889 16.9025
148 1 -0.790677 -10.9448 -14.9812 -0.790677 -10.9448 -14.9812
749 1 -16.0006 -9.26438 -15.2708 -16.0006 -9.26438 -15.2708
2674 1 -11.4731 -15.8877 -2.07183 -11.4731 -15.8877 31.5854
12045 1 -14.6679 -9.89624 -16.7271 18.9893 -9.89624 16.9301
8215 1 -13.5284 -10.5418 -15.0017 -13.5284 23.1155 18.6556
15897 1 -0.351666 -13.275 -5.88478 -0.351666 20.3822 -5.88478
1175 1 -11.8857 -9.67915 -16.4319 -11.8857 -9.67915 -16.4319
808 1 -11.4542 -9.42822 -14.3297 -11.4542 -9.42822 -14.3297
12503 1 -8.80569 -9.57615 -15.5781 24.8516 24.0811 -15.5781
2214 1 -7.11157 -9.68299 -15.6698 -7.11157 -9.68299 17.9875
7639 1 -5.67662 -8.5794 -15.9136 -5.67662 -8.5794 17.7436
5027 1 -4.52145 -10.777 -16.5759 -4.52145 22.8803 -16.5759
4215 1 -16.5185 -4.59597 -1.3969 -16.5185 -4.59597 -1.3969
11078 1 -0.864303 -10.1922 -16.2763 -0.864303 -10.1922 17.381
11155 1 -8.42313 -0.0565044 -0.515636 -8.42313 -0.0565044 -0.515636
15143 1 -1.71351 -5.56531 -15.6432 -1.71351 -5.56531 18.0141
5025 1 -14.9142 -8.50234 -15.7779 -14.9142 -8.50234 -15.7779
2372 1 -13.6799 -16.3147 -16.3325 -13.6799 -16.3147 17.3248
13398 1 -12.4169 -0.211743 -6.62114 21.2404 -0.211743 -6.62114
12522 1 -10.9198 -7.80997 -15.8407 -10.9198 -7.80997 -15.8407
16305 1 -9.55768 -5.94791 -16.0362 -9.55768 -5.94791 17.6211
5523 1 -12.6274 -0.304385 -4.28777 -12.6274 -0.304385 -4.28777
1639 1 -8.94896 -7.35632 -16.1488 -8.94896 -7.35632 -16.1488
16145 1 -9.27067 -15.0572 -0.973143 24.3866 18.6 32.6841
3889 1 -5.28672 -7.05499 -14.8452 -5.28672 -7.05499 -14.8452
8503 1 -6.15347 -7.64345 -16.001 -6.15347 -7.64345 -16.001
7279 1 -0.259214 -9.99038 -15.4681 -0.259214 -9.99038 -15.4681
11381 1 -3.27746 -8.12375 -15.6578 30.3798 -8.12375 17.9995
11149 1 -3.26374 -9.35106 -16.4483 -3.26374 -9.35106 17.2089
1152 1 -1.40928 -7.94701 -15.9564 -1.40928 -7.94701 17.7008
6772 1 -16.2753 -7.51132 -15.9605 -16.2753 -7.51132 17.6967
6319 1 -15.0966 -7.17309 -14.9387 -15.0966 26.4842 18.7185
58 1 -16.5797 -6.2966 -15.0176 -16.5797 -6.2966 -15.0176
2010 1 -11.8126 -6.57088 -15.6923 -11.8126 -6.57088 -15.6923
8616 1 -11.3381 -5.61028 -16.519 -11.3381 -5.61028 -16.519
12190 1 -8.44994 -6.10695 -15.6207 -8.44994 -6.10695 18.0366
4715 1 -7.23959 -7.55943 -15.6975 -7.23959 26.0978 -15.6975
5503 1 -10.925 -9.9258 -16.1605 -10.925 23.7315 -16.1605
14616 1 -5.25647 -6.88496 -16.7525 -5.25647 -6.88496 16.9048
1481 1 -4.00479 -7.31029 -16.0406 -4.00479 -7.31029 -16.0406
4294 1 -5.16471 -0.750389 -9.1313 -5.16471 -0.750389 -9.1313
9002 1 -2.81815 -6.57196 -14.5923 -2.81815 -6.57196 -14.5923
2250 1 -2.06077 -6.67799 -16.1429 -2.06077 -6.67799 17.5144
1884 1 -0.120303 -7.44331 -16.374 -0.120303 -7.44331 -16.374
1965 1 -16.1319 -5.54134 -16.3083 -16.1319 -5.54134 -16.3083
14365 1 -14.4026 -16.7503 -9.54642 19.2546 16.907 24.1108
6501 1 -13.1154 -4.1178 -15.1516 -13.1154 -4.1178 18.5057
8921 1 -12.4889 -5.79746 -15.6595 -12.4889 -5.79746 -15.6595
3070 1 -10.9151 -4.41092 -15.0882 -10.9151 -4.41092 18.5691
11507 1 -9.06605 -4.51286 -16.5635 24.5912 -4.51286 17.0938
11517 1 -10.2443 -4.43218 -16.0494 23.413 -4.43218 17.6079
12218 1 -7.71993 -4.75796 -16.3039 -7.71993 -4.75796 17.3534
5740 1 -10.5462 -2.96505 -15.6048 -10.5462 -2.96505 -15.6048
2003 1 -0.967375 -4.9347 -0.194322 -34.6246 -4.9347 -0.194322
5320 1 -6.98423 -5.47388 -15.4595 -6.98423 -5.47388 -15.4595
8203 1 -6.6265 -4.37215 -15.968 -6.6265 -4.37215 17.6892
3832 1 -3.71411 -4.38835 -15.9892 -3.71411 -4.38835 17.6681
6214 1 -5.46093 -5.11464 -15.9923 -5.46093 -5.11464 17.6649
10574 1 -2.87764 -4.6946 -14.9355 -2.87764 -4.6946 18.7218
15594 1 -14.6112 -0.837585 -0.419154 19.046 32.8197 -0.419154
1169 1 -2.42501 -4.81701 -16.0706 -2.42501 -4.81701 -16.0706
1421 1 -15.9724 -16.5467 -16.3752 -15.9724 -16.5467 -16.3752
10490 1 -16.1971 -4.42983 -15.2451 17.4602 -4.42983 18.4121
5541 1 -8.36308 -16.7371 -10.7165 -8.36308 16.9202 -10.7165
15893 1 -13.0056 -2.95498 -14.8895 -13.0056 -2.95498 18.7678
4724 1 -11.805 -4.20606 -16.2402 -11.805 -4.20606 -16.2402
13690 1 -11.262 -2.22952 -16.577 22.3952 -2.22952 -16.577
2649 1 -9.65393 -3.18767 -16.3346 -9.65393 -3.18767 17.3227
6467 1 -11.1384 -15.4451 -7.26757 -11.1384 18.2121 -7.26757
4321 1 -7.52824 -3.31907 -16.4004 -7.52824 -3.31907 -16.4004
10 1 -5.84637 -3.15486 -16.136 -5.84637 -3.15486 -16.136
1690 1 -5.05366 -4.23087 -16.3636 -5.05366 -4.23087 -16.3636
4522 1 -4.01599 -3.36387 -16.2581 -4.01599 -3.36387 -16.2581
160 1 -2.77199 -2.76424 -16.4919 -2.77199 -2.76424 -16.4919
2049 1 -1.82037 -3.05437 -15.2734 -1.82037 -3.05437 18.3839
578 1 -2.62677 -16.7015 -5.016 -2.62677 -16.7015 -5.016
13191 1 -0.952958 -2.78503 -14.2059 -0.952958 -2.78503 19.4514
1135 1 -1.10738 -4.04925 -16.1879 -1.10738 -4.04925 -16.1879
4862 1 -11.2583 -0.378325 -6.89028 -11.2583 -0.378325 -6.89028
4973 1 -15.1171 -1.65207 -16.2211 -15.1171 -1.65207 -16.2211
10751 1 -14.4092 -2.28229 -15.3401 19.248 -2.28229 18.3171
5094 1 -15.7735 -2.88431 -15.1367 -15.7735 -2.88431 -15.1367
13282 1 -9.82484 -1.94048 -15.5661 23.8324 -1.94048 -15.5661
2927 1 -9.43615 -2.0034 -16.7465 -9.43615 -35.6607 16.9108
4597 1 -8.85466 -2.57627 -15.34 -8.85466 -2.57627 -15.34
6509 1 -7.40841 -2.22278 -16.065 -7.40841 -2.22278 17.5922
2505 1 -6.23302 -1.70166 -16.2155 -6.23302 -1.70166 17.4417
5308 1 -5.0478 -1.17647 -15.9462 -5.0478 -1.17647 -15.9462
573 1 -3.26968 -3.28893 -15.3004 -3.26968 -3.28893 -15.3004
6646 1 -4.06889 -1.66463 -16.4068 -4.06889 -1.66463 17.2505
7098 1 -0.800627 -5.78097 -1.88224 -0.800627 -5.78097 -1.88224
11530 1 -0.588114 -3.11117 -16.011 -0.588114 -3.11117 17.6463
14925 1 -16.6714 -0.324083 -15.6253 16.9859 -0.324083 18.0319
8128 1 -14.0891 -0.9698 -15.9517 -14.0891 -0.9698 17.7056
356 1 -13.1983 -0.155558 -15.7563 -13.1983 -0.155558 -15.7563
13904 1 -12.285 -1.58355 -15.6264 -12.285 -1.58355 -15.6264
4226 1 -8.57722 -15.6898 -2.11169 -8.57722 17.9675 -2.11169
5623 1 -12.3944 -0.502707 -16.4033 -12.3944 -0.502707 -16.4033
7298 1 -0.380981 -4.70619 -2.57963 -0.380981 -4.70619 31.0776
6485 1 -9.84492 -0.602095 -14.6195 -9.84492 33.0552 19.0378
80 1 -11.6675 -16.3623 -4.04091 -11.6675 17.2949 -4.04091
2031 1 -0.924446 -9.03895 -2.26895 -0.924446 -9.03895 -2.26895
11346 1 -9.32606 -0.513207 -9.5837 24.3312 -0.513207 -9.5837
5383 1 -2.60939 -0.387482 -16.1593 -2.60939 -0.387482 -16.1593
14489 1 -0.196531 -9.75027 -13.6489 -0.196531 23.907 20.0084
7424 1 -3.23495 -1.15156 -15.2659 -3.23495 32.5057 18.3914
5941 1 -0.514894 -0.398708 -16.0755 -0.514894 -0.398708 -16.0755
7984 1 -12.7995 -2.37554 -16.1935 -12.7995 31.2817 17.4638
15196 1 -16.296 -15.705 -14.9906 17.3613 17.9522 18.6667
15121 1 -14.5896 -16.6153 -12.895 19.0677 17.042 20.7623
8957 1 -0.591901 -15.4256 -16.8004 -0.591901 -15.4256 -16.8004
15107 1 -13.7288 -16.3928 -14.235 19.9285 -16.3928 19.4222
8955 1 -12.1251 -16.4621 -13.3828 21.5322 17.1951 -13.3828
74 1 -11.6324 -16.1902 -14.8792 -11.6324 -16.1902 -14.8792
6369 1 -9.07044 -16.4561 -15.8713 -9.07044 17.2012 17.7859
934 1 -8.03727 -15.4847 -14.9658 -8.03727 -15.4847 -14.9658
1743 1 -8.44189 -16.2323 -14.0873 -8.44189 -16.2323 -14.0873
11648 1 -5.07662 -15.737 -13.5083 -5.07662 -15.737 20.149
7538 1 -4.71438 -15.6824 -15.2419 -4.71438 17.9749 18.4153
3385 1 -16.1715 -7.03966 -1.37029 -16.1715 -7.03966 -1.37029
5700 1 -4.25662 -15.2508 -13.999 -4.25662 18.4065 -13.999
4572 1 -3.17204 -16.1956 -11.7163 -3.17204 17.4616 -11.7163
8669 1 -2.85692 -15.7988 -14.1854 -2.85692 -15.7988 -14.1854
6363 1 -1.10254 -15.9422 -14.6857 -1.10254 17.7151 18.9716
14161 1 -2.58475 -12.2763 -16.5335 -2.58475 21.381 -16.5335
2354 1 -0.875117 -16.4378 -15.9526 -0.875117 -16.4378 17.7046
1924 1 -14.9479 -14.9924 -14.5568 -14.9479 -14.9924 -14.5568
8046 1 -12.5429 -15.3165 -14.4007 -12.5429 18.3408 19.2565
7456 1 -9.59492 -14.4815 -15.4631 -9.59492 19.1758 -15.4631
4514 1 -8.67788 -14.6827 -14.6252 -8.67788 18.9746 -14.6252
8868 1 -6.36182 -15.7537 -15.1837 -6.36182 -15.7537 -15.1837
16382 1 -6.08562 -14.6524 -14.6025 -6.08562 19.0049 -14.6025
2126 1 -2.75546 -14.3966 -15.0581 -2.75546 -14.3966 18.5992
11646 1 -0.708773 -14.3566 -14.7302 -0.708773 -14.3566 18.927
9630 1 -1.9184 -15.0158 -14.7251 -1.9184 -15.0158 -14.7251
15396 1 -16.1458 -14.1581 -14.5861 17.5114 19.4991 19.0711
1431 1 -15.7434 -12.5143 -15.083 -15.7434 -12.5143 -15.083
6879 1 -15.3802 -13.4068 -13.9706 -15.3802 20.2504 19.6866
12827 1 -14.8845 -13.6323 -14.8161 -14.8845 20.025 -14.8161
14882 1 -13.1594 -13.1779 -13.5707 20.4979 20.4793 20.0865
1251 1 -10.8039 -14.7809 -13.8463 -10.8039 18.8763 -13.8463
9435 1 -9.01356 -12.55 -15.0684 24.6437 -12.55 -15.0684
3127 1 -7.33705 -13.866 -14.8788 -7.33705 -13.866 18.7785
4147 1 -6.66035 -12.9707 -13.9265 -6.66035 20.6865 -13.9265
8173 1 -4.56969 -11.6478 -15.3592 -4.56969 22.0095 18.2981
8402 1 -4.86743 -13.589 -13.8975 -4.86743 -13.589 -13.8975
357 1 -4.52164 -12.8628 -15.1738 -4.52164 -12.8628 -15.1738
9433 1 -3.73128 -13.8785 -13.5285 -3.73128 -13.8785 -13.5285
8540 1 -2.44023 -13.7434 -15.8206 -2.44023 -13.7434 -15.8206
9896 1 -0.488636 -12.6166 -14.971 -0.488636 -12.6166 -14.971
2184 1 -2.08959 -0.579791 -1.56821 -2.08959 -0.579791 -1.56821
11606 1 -14.9714 -10.5787 -13.6731 18.6859 -10.5787 -13.6731
849 1 -15.5361 -11.6107 -14.2412 -15.5361 -11.6107 -14.2412
8786 1 -14.528 -11.3564 -14.5622 19.1293 -11.3564 -14.5622
4665 1 -12.7239 -12.4838 -14.8063 -12.7239 21.1735 -14.8063
5720 1 -12.0199 -11.7632 -13.5958 -12.0199 21.8941 -13.5958
13813 1 -10.9049 -12.8276 -15.1186 22.7524 20.8296 -15.1186
5923 1 -9.87151 -11.5067 -15.0485 -9.87151 -11.5067 -15.0485
11712 1 -8.1868 -13.1727 -14.4157 25.4705 -13.1727 19.2415
733 1 -7.82666 -12.4117 -13.6105 -7.82666 -12.4117 -13.6105
1537 1 -5.06678 -9.74836 -14.1642 -5.06678 -9.74836 -14.1642
2426 1 -5.64472 -11.4679 -14.9191 -5.64472 -11.4679 18.7381
7644 1 -3.60858 -10.606 -15.8687 -3.60858 23.0513 17.7885
8255 1 -3.1481 -11.8207 -15.6865 -3.1481 -11.8207 -15.6865
12009 1 -3.07946 -12.7891 -14.8718 -3.07946 -12.7891 18.7854
3683 1 -2.58487 -11.5591 -14.5982 -2.58487 -11.5591 19.059
7833 1 -11.4594 -15.614 -16.1059 -11.4594 18.0432 17.5514
13271 1 -16.0242 -11.5631 -15.5805 17.633 22.0942 -15.5805
11856 1 -13.6926 -10.4088 -13.9235 19.9647 -10.4088 19.7338
14478 1 -12.495 -9.71638 -14.6075 21.1623 23.9409 -14.6075
4235 1 -11.2495 -11.8161 -15.4293 -11.2495 21.8412 18.2279
1536 1 -11.4679 -10.5396 -15.0754 -11.4679 -10.5396 -15.0754
503 1 -9.8744 -10.726 -16.1885 -9.8744 -10.726 -16.1885
1802 1 -8.94688 -10.9105 -14.6876 -8.94688 -10.9105 -14.6876
597 1 -7.71657 -11.9248 -14.6834 -41.3738 -11.9248 18.9738
1305 1 -7.04076 -10.4143 -14.9792 -7.04076 -10.4143 -14.9792
5290 1 -6.14723 -9.09725 -14.0881 -6.14723 -9.09725 -14.0881
5990 1 -3.88493 -10.6149 -14.2849 -3.88493 -10.6149 -14.2849
995 1 -2.02537 -9.86368 -15.5372 -2.02537 -9.86368 -15.5372
10961 1 -1.30095 -9.86002 -14.6794 -1.30095 -9.86002 18.9778
9864 1 -14.0241 -5.16978 -16.2896 -14.0241 -5.16978 -16.2896
1375 1 -15.4375 -9.89618 -14.5073 -15.4375 -9.89618 -14.5073
15275 1 -13.8976 -8.68707 -15.7143 19.7596 -8.68707 17.9429
6982 1 -13.6881 -8.94007 -13.6748 -13.6881 -8.94007 19.9824
5986 1 -12.9166 -9.01631 -15.8309 -12.9166 -9.01631 -15.8309
2261 1 -10.0016 -9.9656 -14.6639 -10.0016 -9.9656 18.9934
1438 1 -9.78365 -8.48424 -15.6319 -9.78365 -8.48424 -15.6319
11538 1 -8.87377 -9.05408 -14.5803 24.7835 -9.05408 19.077
1760 1 -7.33522 -8.89451 -14.4173 -7.33522 -8.89451 -14.4173
10054 1 -5.08211 -9.50164 -15.2228 -5.08211 -9.50164 -15.2228
12016 1 -3.68576 -9.35313 -14.2066 -3.68576 -9.35313 19.4506
7430 1 -2.19019 -8.7722 -15.21 -2.19019 -8.7722 18.4473
4796 1 -1.42987 -8.83471 -13.9113 -1.42987 -8.83471 -13.9113
8415 1 -0.625586 -8.99735 -15.5306 -0.625586 -8.99735 -15.5306
6156 1 -5.03461 -12.3916 -0.0465448 -5.03461 21.2656 -0.0465448
11112 1 -14.6798 -8.91712 -14.392 18.9775 -8.91712 19.2653
3051 1 -13.623 -7.19078 -15.4246 -13.623 -7.19078 18.2326
14935 1 -13.3333 -7.94702 -14.341 -13.3333 -7.94702 19.3162
6334 1 -12.1491 -7.3606 -14.9547 -12.1491 -7.3606 18.7026
2611 1 -10.7552 -6.9099 -14.1321 -10.7552 -6.9099 19.5251
480 1 -10.4196 -8.18894 -14.2298 -10.4196 -8.18894 -14.2298
4995 1 -7.86804 -8.47864 -16.2683 -7.86804 -8.47864 -16.2683
3405 1 -9.37748 -8.00435 -13.5075 -9.37748 -8.00435 20.1497
1843 1 -8.2441 -8.05733 -14.7598 -8.2441 -8.05733 -14.7598
11584 1 -6.35081 -8.55296 -15.0858 -6.35081 -8.55296 18.5715
10259 1 -3.49276 -8.19279 -13.8553 -3.49276 -8.19279 -13.8553
1895 1 -4.73615 -7.89922 -15.5098 -4.73615 -7.89922 -15.5098
3004 1 -2.52007 -7.87967 -13.6229 -2.52007 -7.87967 20.0343
2324 1 -1.40323 -7.45522 -14.8922 -1.40323 -7.45522 18.765
7070 1 -0.0077206 -8.16593 -13.918 -0.0077206 -8.16593 19.7392
14456 1 -16.1326 -13.5836 -1.94632 17.5247 20.0737 -1.94632
2623 1 -15.7872 -8.05469 -14.5902 -15.7872 -8.05469 19.067
15950 1 -16.6677 -5.83116 -13.2743 16.9895 -5.83116 20.383
12159 1 -13.0104 -6.10948 -14.7416 -13.0104 -6.10948 18.9157
14402 1 -10.4516 -6.54352 -15.3317 23.2057 -6.54352 18.3255
741 1 -9.48032 -7.49155 -15.0833 -9.48032 -7.49155 -15.0833
2736 1 -8.24922 -7.27807 -15.4291 -8.24922 -7.27807 18.2281
4172 1 -7.49857 -6.77725 -14.9541 -7.49857 26.88 -14.9541
2185 1 -5.48344 -6.21803 -15.6184 -5.48344 -6.21803 18.0388
5386 1 -3.18232 -5.98317 -15.9563 -3.18232 27.6741 -15.9563
8505 1 -4.10596 -6.03819 -15.2811 -4.10596 -6.03819 -15.2811
1625 1 -2.44316 -6.89034 -12.7897 -2.44316 -6.89034 -12.7897
1798 1 -1.13376 -5.6257 -13.9998 -1.13376 -5.6257 -13.9998
11717 1 -0.301486 -6.22101 -15.381 -0.301486 -6.22101 -15.381
8584 1 -8.83797 -16.8045 -7.7241 -8.83797 -16.8045 -7.7241
10069 1 -15.3077 -5.10086 -15.9346 18.3495 -5.10086 -15.9346
3029 1 -13.8688 -5.41875 -14.9556 -13.8688 -5.41875 18.7016
4789 1 -14.2147 -4.52729 -14.4173 -14.2147 -4.52729 -14.4173
8524 1 -12.1667 -5.76887 -14.0056 21.4906 -5.76887 -14.0056
914 1 -9.91349 -5.04807 -15.305 -9.91349 -5.04807 -15.305
2873 1 -8.29101 -4.96195 -14.9083 -8.29101 -4.96195 18.749
8056 1 -8.39186 -6.2751 -14.2692 -8.39186 -6.2751 19.388
621 1 -8.03024 -3.89911 -14.6583 -8.03024 -3.89911 -14.6583
3130 1 -4.93369 -5.08909 -14.9955 -4.93369 -5.08909 18.6618
2117 1 -3.1318 -5.76745 -14.0286 -3.1318 -5.76745 -14.0286
11978 1 -1.16339 -4.03976 -14.9463 -1.16339 -4.03976 18.711
15509 1 -2.17179 -5.86296 -13.6455 -2.17179 -5.86296 20.0118
13987 1 -16.5843 -3.31284 -15.5934 17.0729 -3.31284 -15.5934
9678 1 -14.8659 -3.63928 -15.6317 18.7914 -3.63928 -15.6317
3468 1 -16.5139 -3.31347 -13.7933 -16.5139 -3.31347 19.8639
9133 1 -13.1029 -5.12089 -13.6183 20.5544 -5.12089 -13.6183
5178 1 -11.6016 -3.2037 -15.6818 -11.6016 -3.2037 -15.6818
22 1 -8.955 -1.27313 -14.0194 -8.955 -1.27313 -14.0194
10958 1 -6.13683 -3.43877 -15.142 -6.13683 -3.43877 18.5152
1589 1 -8.6099 -3.67798 -15.582 -8.6099 -3.67798 -15.582
5248 1 -4.64302 -3.18176 -15.2293 -4.64302 -3.18176 -15.2293
16068 1 -4.06524 -4.55371 -14.8756 29.592 -4.55371 -14.8756
1408 1 -6.90646 -4.69858 -14.5526 -6.90646 -4.69858 -14.5526
4691 1 -3.93811 -3.40332 -14.3463 -3.93811 -3.40332 -14.3463
11792 1 -2.63721 -2.76868 -14.3996 -2.63721 -2.76868 19.2577
11310 1 -0.0893543 -4.2304 -14.7214 -0.0893543 -37.8877 18.9359
12386 1 -15.0799 -3.76174 -14.1944 18.5773 -3.76174 -14.1944
7877 1 -14.8259 -1.31791 -15.16 -14.8259 -1.31791 18.4973
11013 1 -14.123 -2.57531 -13.9814 19.5343 -2.57531 19.6758
4349 1 -11.1296 -1.84008 -15.4936 -11.1296 -1.84008 -15.4936
1023 1 -11.8069 -1.85536 -14.4997 -11.8069 -1.85536 -14.4997
9756 1 -9.9117 -2.73548 -13.6853 23.7456 -36.3927 -13.6853
696 1 -7.3565 -2.67901 -14.9417 -7.3565 -2.67901 -14.9417
4345 1 -8.56427 -1.05277 -15.5245 -8.56427 -1.05277 -15.5245
6851 1 -6.18705 -2.36527 -14.1093 -6.18705 -2.36527 19.5479
1648 1 -4.76907 -2.46519 -13.967 -4.76907 -2.46519 -13.967
4205 1 -3.92579 -2.18561 -14.8593 -3.92579 31.4716 -14.8593
324 1 -3.62894 -2.12815 -13.5598 -3.62894 -2.12815 -13.5598
5765 1 -1.58672 -1.61344 -14.4419 -1.58672 -1.61344 -14.4419
13563 1 -1.21226 -1.28421 -15.5254 -1.21226 -1.28421 -15.5254
6784 1 -0.0261665 -0.938971 -14.8137 -0.0261665 -0.938971 18.8436
7181 1 -15.8763 -0.79873 -14.3615 -15.8763 -0.79873 -14.3615
4005 1 -13.5399 -3.59875 -16.1184 -13.5399 -3.59875 17.5389
4082 1 -13.6032 -1.50946 -14.4737 -13.6032 -1.50946 -14.4737
1503 1 -12.4543 -0.520302 -13.715 -12.4543 -34.1776 -13.715
737 1 -12.6593 -1.6012 -13.4071 -12.6593 -1.6012 -13.4071
2135 1 -10.8905 -0.550131 -15.9536 -10.8905 -0.550131 17.7037
9221 1 -10.7263 -2.0704 -14.1482 -10.7263 -2.0704 -14.1482
6075 1 -15.631 -1.01893 -2.56126 -15.631 -1.01893 -2.56126
9395 1 -7.68107 -1.27435 -14.235 25.9762 -1.27435 -14.235
9658 1 -0.587594 -15.2967 -8.24625 -0.587594 -15.2967 -8.24625
15013 1 -5.91505 -0.371797 -15.7237 -5.91505 -0.371797 17.9336
9415 1 -16.3767 -13.9389 -15.5946 17.2805 -13.9389 -15.5946
8244 1 -16.8113 -5.97496 -0.327424 16.8459 -5.97496 -0.327424
46 1 -2.16321 -0.670482 -13.7055 -2.16321 -0.670482 -13.7055
2880 1 -15.8833 -10.972 -0.177154 -15.8833 -10.972 -0.177154
2429 1 -15.4597 -16.4704 -14.1169 -15.4597 -16.4704 19.5404
2851 1 -13.3231 -16.3971 -12.9827 -13.3231 -16.3971 20.6745
7676 1 -16.5801 -11.2855 -2.80365 17.0772 22.3718 -2.80365
15758 1 -11.7202 -15.595 -12.7723 21.9371 18.0622 -12.7723
12861 1 -9.01245 -16.428 -13.1335 -9.01245 17.2293 -13.1335
1968 1 -7.42732 -16.1007 -11.991 -7.42732 -16.1007 -11.991
1231 1 -2.58282 -16.4702 -13.1179 -2.58282 -16.4702 -13.1179
6597 1 -1.63136 -15.9582 -12.2022 -1.63136 17.6991 21.455
3741 1 -4.97843 -15.8715 -9.37333 -4.97843 -15.8715 24.2839
2745 1 -10.2833 -8.96727 -0.480831 -10.2833 -8.96727 -0.480831
4178 1 -13.9915 -2.5283 -16.4005 -13.9915 -2.5283 17.2568
10007 1 -15.8681 -14.5823 -13.5332 17.7892 -14.5823 -13.5332
3063 1 -13.3872 -14.3605 -13.9586 -13.3872 -14.3605 19.6987
761 1 -14.7295 -15.0026 -12.8599 -14.7295 -15.0026 -12.8599
7900 1 -14.2546 -14.1105 -11.8091 -14.2546 19.5468 21.8481
1290 1 -11.7747 -13.7814 -13.3391 -11.7747 -13.7814 -13.3391
14931 1 -12.7337 -15.1505 -13.4229 20.9235 18.5068 20.2343
1171 1 -10.7382 -16.0693 -13.6821 -44.3955 -16.0693 -13.6821
3110 1 -10.492 -14.9132 -12.8093 -10.492 -14.9132 20.848
9845 1 -10.5604 -13.952 -13.2069 23.0969 -13.952 -13.2069
4054 1 -9.6111 -15.1928 -13.8629 -9.6111 -15.1928 19.7943
7646 1 -7.80284 -14.1951 -13.7692 -7.80284 19.4621 19.8881
124 1 -8.99217 -15.2953 -12.9842 -8.99217 -15.2953 -12.9842
13952 1 -6.95091 -14.1663 -12.9125 -6.95091 19.491 -12.9125
13962 1 -7.54408 -15.6832 -13.3593 26.1132 -15.6832 -13.3593
5217 1 -4.02205 -15.2289 -12.7303 -4.02205 18.4283 -12.7303
10691 1 -3.46441 -14.4325 -12.2193 30.1928 -14.4325 21.438
1814 1 -2.4654 -14.7924 -13.3664 -2.4654 -14.7924 -13.3664
9096 1 -1.01001 -15.7932 -13.6738 -1.01001 -15.7932 -13.6738
3482 1 -0.368531 -15.3259 -12.2415 -0.368531 18.3314 21.4158
2399 1 -16.5924 -14.3962 -12.7619 -16.5924 -14.3962 20.8954
1740 1 -15.4744 -12.8127 -12.967 18.1829 -12.8127 -12.967
767 1 -14.5765 -13.7097 -13.3421 -14.5765 -13.7097 -13.3421
15064 1 -13.0584 -13.1815 -12.5726 20.5989 -13.1815 21.0846
13957 1 -11.5349 -12.6856 -14.1559 22.1223 20.9717 -14.1559
8850 1 -10.3751 -12.4876 -12.7567 23.2822 -12.4876 -12.7567
336 1 -10.3582 -12.4624 -14.1191 -10.3582 -12.4624 -14.1191
523 1 -7.92005 -13.1886 -12.624 -7.92005 -13.1886 -12.624
5388 1 -5.90859 -14.566 -13.2601 -5.90859 19.0912 -13.2601
5159 1 -3.48349 -13.1588 -12.4118 -3.48349 20.4985 -12.4118
12351 1 -1.44407 -14.2214 -13.2499 32.2132 19.4358 -13.2499
4680 1 -1.78156 -13.3297 -14.4726 -1.78156 20.3276 -14.4726
8795 1 -16.3154 -11.2828 -13.3387 17.3419 -11.2828 -13.3387
11865 1 -14.4342 -12.1207 -13.092 19.223 -12.1207 20.5653
10172 1 -13.7365 -12.1068 -14.16 19.9207 -12.1068 -14.16
1435 1 -11.1295 -11.2093 -14.0271 -11.1295 -11.2093 -14.0271
7848 1 -9.39831 -12.4294 -13.5879 -9.39831 21.2279 20.0694
10676 1 -6.40576 -11.7827 -12.9943 -6.40576 -11.7827 -12.9943
1461 1 -8.30023 -10.7859 -13.7945 -8.30023 -10.7859 -13.7945
8036 1 -6.40471 -11.2984 -14.1465 -6.40471 22.3589 19.5108
951 1 -5.76743 -12.5316 -14.1265 -5.76743 -12.5316 -14.1265
6380 1 -4.84469 -11.0677 -13.9501 -4.84469 -11.0677 -13.9501
3551 1 -3.15939 -12.3392 -13.8462 -3.15939 -12.3392 -13.8462
4720 1 -2.67301 -13.3031 -13.1854 -2.67301 20.3542 -13.1854
10111 1 -0.522982 -12.1823 -13.1787 -0.522982 -12.1823 -13.1787
9183 1 -1.48472 -11.9238 -14.2414 -1.48472 -11.9238 -14.2414
10154 1 -8.42058 -0.231839 -1.82213 -8.42058 -0.231839 -1.82213
11975 1 -14.993 -7.30691 -16.6328 18.6643 -7.30691 17.0245
10949 1 -8.78896 -8.82802 -16.4569 24.8683 -8.82802 17.2004
10043 1 -15.6745 -10.2582 -12.6554 17.9827 -10.2582 -12.6554
1331 1 -12.4843 -11.7932 -12.6224 -12.4843 -11.7932 -12.6224
11919 1 -11.439 -11.2517 -12.4982 22.2183 -11.2517 21.159
1761 1 -9.99461 -11.0896 -13.6583 -9.99461 -11.0896 -13.6583
12283 1 -7.52191 -10.6115 -12.147 -7.52191 -10.6115 21.5102
3074 1 -6.22654 -10.1368 -13.5759 -6.22654 -10.1368 20.0814
3618 1 -4.35443 -11.2587 -12.2976 -4.35443 -11.2587 21.3596
6994 1 -3.48468 -10.3887 -12.8846 -3.48468 -10.3887 20.7726
2710 1 -2.60228 -11.0701 -13.3336 -2.60228 -11.0701 20.3236
8804 1 -2.15776 -9.7593 -13.6601 -2.15776 -9.7593 -13.6601
7610 1 -11.6614 -1.61222 -1.67424 -11.6614 -1.61222 -1.67424
12056 1 -15.3006 -9.2775 -13.1416 -15.3006 -9.2775 20.5157
3528 1 -14.046 -10.0523 -12.7781 -14.046 -10.0523 -12.7781
740 1 -11.6189 -8.16834 -14.6187 -11.6189 -8.16834 -14.6187
192 1 -10.6122 -8.93364 -12.0595 -10.6122 -8.93364 -12.0595
1910 1 -11.9837 -10.3061 -13.2641 -11.9837 -10.3061 -13.2641
899 1 -9.09116 -9.88638 -13.9967 -9.09116 -9.88638 -13.9967
5423 1 -10.7879 -10.1727 -12.9473 -10.7879 -10.1727 -12.9473
2147 1 -8.33001 -9.57935 -12.8859 -8.33001 -9.57935 20.7713
9124 1 -7.449 -8.54332 -13.2899 -7.449 -8.54332 -13.2899
1711 1 -7.13799 -9.41407 -12.4334 -7.13799 -9.41407 -12.4334
4295 1 -5.50931 -8.32341 -13.3784 -5.50931 -8.32341 -13.3784
4807 1 -5.08346 -10.5597 -12.6714 -5.08346 23.0975 -12.6714
13517 1 -4.46099 -8.6871 -13.0125 -4.46099 24.9702 -13.0125
6378 1 -2.71328 -9.65916 -14.6035 -2.71328 -9.65916 19.0538
4581 1 -1.33796 -7.89985 -12.9033 -1.33796 -7.89985 -12.9033
4007 1 -16.7357 -8.51805 -14.1958 -16.7357 -8.51805 19.4615
8500 1 -16.6415 -6.71615 -12.549 17.0157 -6.71615 -12.549
335 1 -15.0662 -8.07559 -13.1161 -15.0662 -8.07559 -13.1161
13798 1 -13.66 -8.41405 -12.1143 19.9973 25.2432 -12.1143
12226 1 -12.7372 -7.84501 -13.3498 -12.7372 -7.84501 20.3075
12169 1 -11.3092 -8.45425 -13.3388 -11.3092 -8.45425 -13.3388
3061 1 -8.75945 -8.10464 -12.7144 -8.75945 -8.10464 20.9429
2801 1 -10.5835 -6.73341 -13.0493 -10.5835 -6.73341 20.608
5155 1 -7.89556 -7.24079 -13.8267 -7.89556 26.4165 -13.8267
751 1 -6.49857 -8.09142 -13.8234 -6.49857 -8.09142 -13.8234
310 1 -4.66994 -8.27919 -14.2664 -4.66994 -8.27919 -14.2664
9950 1 -5.17845 -7.85987 -11.9509 -5.17845 -7.85987 -11.9509
12840 1 -4.66068 -7.0473 -12.8888 -4.66068 26.61 -12.8888
797 1 -0.719573 -6.88868 -14.0824 -0.719573 -6.88868 -14.0824
5296 1 -15.531 -13.9255 -16.4185 -15.531 19.7317 -16.4185
9339 1 -14.7627 -5.94778 -14.1521 18.8946 -5.94778 -14.1521
97 1 -15.7714 -6.94804 -13.842 -15.7714 -6.94804 -13.842
10724 1 -14.3404 -7.8863 -14.1426 -14.3404 -7.8863 19.5147
2398 1 -11.9458 -6.82154 -14.1115 -11.9458 -6.82154 19.5457
15923 1 -10.6299 -5.16529 -13.7407 23.0273 -5.16529 19.9165
2054 1 -9.50577 -7.13288 -13.9978 -9.50577 -7.13288 19.6595
205 1 -7.55498 -5.65925 -11.9049 -7.55498 -5.65925 -11.9049
13950 1 -8.14555 -6.85502 -12.7166 -8.14555 -6.85502 -12.7166
13632 1 -5.06994 -7.3352 -13.7774 -5.06994 -7.3352 -13.7774
9368 1 -4.64513 -5.53065 -13.9314 -4.64513 -5.53065 -13.9314
912 1 -3.73302 -6.27831 -12.1062 -3.73302 -6.27831 -12.1062
10824 1 -1.4274 -5.838 -12.1192 -1.4274 -5.838 21.5381
13477 1 -0.898573 -6.4008 -12.9897 -0.898573 27.2564 -12.9897
4176 1 -15.3269 -5.60204 -12.9197 -15.3269 -5.60204 -12.9197
1894 1 -15.1992 -4.97072 -14.4469 -15.1992 -4.97072 -14.4469
9991 1 -14.3862 -4.87013 -11.9017 19.2711 -4.87013 -11.9017
392 1 -12.7053 -4.71013 -12.5157 -12.7053 -4.71013 -12.5157
10037 1 -13.7079 -6.48951 -12.9728 -13.7079 -6.48951 -12.9728
3363 1 -11.3226 -5.81113 -13.035 -11.3226 -5.81113 20.6222
8097 1 -10.2864 -4.20698 -13.8631 -10.2864 -4.20698 19.7942
1975 1 -9.55859 -5.39517 -13.6946 -9.55859 -5.39517 -13.6946
2264 1 -9.40365 -3.72484 -14.617 -9.40365 -3.72484 19.0402
12350 1 -6.956 -5.90474 -14.4753 -6.956 27.7525 -14.4753
1887 1 -5.67483 -6.21862 -14.048 -5.67483 -6.21862 -14.048
1590 1 -4.36064 -4.51565 -13.3139 -4.36064 -4.51565 -13.3139
4566 1 -3.5954 -5.40018 -13.0458 -3.5954 28.2571 -13.0458
9673 1 -3.69809 -3.34997 -13.1136 -3.69809 -3.34997 -13.1136
2231 1 -1.68094 -4.70888 -12.5855 -1.68094 -4.70888 21.0717
8131 1 -0.138677 -4.81052 -13.3001 -0.138677 -4.81052 -13.3001
4346 1 -16.4907 -4.85892 -13.5656 -16.4907 -4.85892 -13.5656
2303 1 -13.1276 -3.56473 -14.0153 -13.1276 -3.56473 19.642
7670 1 -14.5641 -4.38536 -13.3333 -14.5641 -4.38536 20.3239
12427 1 -15.2809 -3.00404 -13.4445 18.3764 -3.00404 -13.4445
8744 1 -11.1363 -3.42089 -14.3062 22.5209 -3.42089 -14.3062
6 1 -9.76066 -2.1726 -11.7345 -9.76066 -2.1726 -11.7345
1763 1 -11.1032 -3.79491 -12.4715 -11.1032 -3.79491 -12.4715
5089 1 -8.82408 -4.47646 -13.3734 -8.82408 -4.47646 -13.3734
1866 1 -8.15985 -3.42477 -13.5579 -8.15985 -3.42477 -13.5579
570 1 -7.7996 -5.30475 -13.7168 -7.7996 -5.30475 -13.7168
13603 1 -6.6371 -3.56339 -13.7176 -6.6371 -3.56339 -13.7176
13501 1 -5.15374 -3.90551 -13.872 -5.15374 -3.90551 -13.872
1702 1 -2.36076 -4.21069 -13.8274 -2.36076 -4.21069 -13.8274
287 1 -0.368365 -2.12989 -13.0663 -0.368365 31.5274 -13.0663