ITEM: TIMESTEP
8500
ITEM: NUMBER OF ATOMS
16384
ITEM: BOX BOUNDS pp pp pp
-1.6828627036276380e+01 1.6828627036276380e+01
-1.6828627036276380e+01 1.6828627036276380e+01
-1.6828627036276380e+01 1.6828627036276380e+01
ITEM: ATOMS id type x y z xu yu zu
12124 1 -0.031267 -0.762913 -4.86257 -0.031267 -0.762913 -4.86257
469 1 -15.0048 -16.7423 -15.3807 -15.0048 -16.7423 -15.3807
2372 1 -14.4146 -16.0169 -15.9967 -14.4146 -16.0169 17.6606
74 1 -12.9407 -15.9041 -15.696 -12.9407 -15.9041 -15.696
7833 1 -11.6791 -15.7231 -16.0269 -11.6791 17.9342 17.6303
8662 1 -10.0245 -15.7085 -15.4059 23.6328 -15.7085 -15.4059
6369 1 -8.69258 -16.2285 -16.025 -8.69258 17.4288 17.6323
6496 1 -6.01899 -16.6198 -16.0308 -6.01899 17.0375 17.6264
3465 1 -0.104587 -8.31744 -2.73627 -33.7618 -8.31744 30.921
6416 1 -2.90568 -16.4547 -15.2469 -2.90568 17.2025 18.4103
5641 1 -3.64995 -15.0482 -15.4309 -3.64995 18.6091 -15.4309
2354 1 -1.54659 -16.0672 -16.5779 -1.54659 -16.0672 17.0794
13665 1 -0.562745 -15.0277 -15.6238 -0.562745 18.6296 -15.6238
4110 1 -16.2674 -0.348426 -0.85824 -16.2674 -0.348426 -0.85824
44 1 -15.3141 -15.3688 -15.7441 -15.3141 -15.3688 17.9131
4387 1 -14.9 -13.6874 -16.528 -14.9 19.9698 17.1293
6190 1 -12.5254 -14.8922 -16.2483 -12.5254 18.7651 17.4089
3581 1 -14.2048 -14.4325 -15.8127 -14.2048 -14.4325 17.8446
1497 1 -7.46281 -15.0403 -15.1931 -7.46281 -15.0403 -15.1931
472 1 -7.32306 -14.6934 -16.5122 -7.32306 -14.6934 -16.5122
7581 1 -16.7061 -5.73381 -9.14267 -16.7061 -5.73381 -9.14267
1723 1 -6.21142 -14.2875 -15.0483 -6.21142 -14.2875 -15.0483
12146 1 -5.80233 -15.321 -15.785 -5.80233 -15.321 17.8723
8260 1 -3.08554 -14.7205 -16.7799 -3.08554 -14.7205 -16.7799
4680 1 -1.86207 -14.6613 -15.1797 -1.86207 18.9959 -15.1797
5937 1 -0.651272 -14.316 -16.7314 -0.651272 19.3412 -16.7314
1108 1 -15.6395 -14.3235 -15.4365 -15.6395 -14.3235 -15.4365
5101 1 -14.7916 -12.4559 -15.8296 -14.7916 -12.4559 -15.8296
15615 1 -13.4234 -13.7625 -16.0663 -13.4234 19.8948 17.591
8060 1 -5.23394 -2.20619 -0.831534 -5.23394 -2.20619 -0.831534
7530 1 -11.6234 -13.6386 -15.1305 -11.6234 -13.6386 18.5267
7734 1 -10.3812 -14.3312 -16.1484 -10.3812 19.326 17.5088
2471 1 -8.75713 -12.4582 -16.464 -8.75713 -12.4582 17.1933
6529 1 -7.57423 -12.8518 -15.8695 -7.57423 -12.8518 17.7877
15854 1 -8.17884 -0.0307773 -13.5792 -8.17884 -0.0307773 20.078
9383 1 -4.57763 -14.5638 -15.3373 -4.57763 -14.5638 -15.3373
11680 1 -3.71381 -13.4335 -16.012 -3.71381 -13.4335 17.6452
12009 1 -2.48099 -13.563 -16.7244 -2.48099 -13.563 16.9328
4183 1 -9.98053 -0.144617 -5.05713 -9.98053 -0.144617 -5.05713
12899 1 -9.36154 -16.7171 -10.0278 -9.36154 16.9401 -10.0278
4805 1 -8.77113 -0.428015 -5.70636 -8.77113 -0.428015 -5.70636
8215 1 -12.7904 -11.9035 -15.8892 -12.7904 21.7537 17.768
952 1 -4.63182 -0.188182 -4.52051 -4.63182 -0.188182 -4.52051
4235 1 -11.8498 -12.8235 -16.2416 -11.8498 20.8338 17.4157
3722 1 -10.0433 -12.1526 -16.2072 -10.0433 -12.1526 17.4501
503 1 -11.7023 -11.725 -16.1745 -11.7023 -11.725 -16.1745
4859 1 -8.18349 -11.2023 -16.4564 -8.18349 22.4549 -16.4564
9790 1 -6.77548 -11.0603 -15.7493 -6.77548 -11.0603 -15.7493
642 1 -6.47964 -12.1699 -16.3176 -6.47964 -12.1699 -16.3176
5493 1 -11.8209 -16.4379 -6.44275 -11.8209 17.2194 -6.44275
6275 1 -4.814 -12.8002 -16.0286 -4.814 -12.8002 -16.0286
7644 1 -3.78007 -12.0433 -16.6271 -3.78007 21.614 17.0301
6944 1 -1.69527 -12.815 -15.9959 -1.69527 20.8423 17.6614
1594 1 -4.46544 -16.5254 -2.00878 -4.46544 -16.5254 -2.00878
9190 1 -15.912 -10.091 -16.1445 17.7453 -10.091 17.5128
12045 1 -14.6325 -10.8967 -15.9894 19.0248 -10.8967 17.6678
603 1 -13.8954 -9.82429 -15.9749 -13.8954 -9.82429 -15.9749
1536 1 -12.7689 -10.33 -16.3999 -12.7689 -10.33 -16.3999
9483 1 -10.8243 -10.5583 -16.2671 -10.8243 -10.5583 -16.2671
6523 1 -9.65999 -10.1486 -16.0533 -9.65999 23.5086 17.604
2426 1 -5.36737 -10.7833 -15.6863 -5.36737 -10.7833 17.971
13934 1 -11.7761 -16.1495 -14.9857 -11.7761 17.5078 -14.9857
5027 1 -4.84177 -11.6446 -16.0298 -4.84177 22.0126 -16.0298
1524 1 -4.19829 -10.7138 -15.6765 -4.19829 -10.7138 -15.6765
6378 1 -2.80702 -10.8605 -16.3273 -2.80702 -10.8605 17.3299
9890 1 -0.454477 -10.9288 -16.1325 -0.454477 -10.9288 -16.1325
10684 1 -16.0346 -9.44336 -14.9102 17.6227 -9.44336 18.747
4836 1 -9.61657 -16.7831 -3.22942 -9.61657 16.8741 -3.22942
10241 1 -2.41691 -0.135601 -10.4434 -2.41691 -0.135601 -10.4434
5503 1 -12.0384 -9.61521 -15.549 -12.0384 24.042 -15.549
1438 1 -11.1747 -8.53298 -15.8688 -11.1747 -8.53298 -15.8688
12503 1 -9.30522 -9.17586 -16.0119 24.352 24.4814 -16.0119
1293 1 -7.08021 -9.16915 -15.3834 -7.08021 -9.16915 -15.3834
10154 1 -8.47132 -0.134734 -2.12681 -8.47132 -0.134734 -2.12681
9058 1 -5.42087 -9.7426 -16.1012 28.2364 -9.7426 -16.1012
13287 1 -3.57644 -8.47016 -16.4911 -3.57644 -8.47016 -16.4911
8558 1 -1.48856 -9.7538 -16.6105 -1.48856 -9.7538 -16.6105
2778 1 -1.84126 -2.99922 -0.541902 -1.84126 -2.99922 -0.541902
6319 1 -15.1221 -7.06478 -15.6893 -15.1221 26.5925 17.968
4034 1 -13.4988 -8.47527 -16.4483 -13.4988 -8.47527 17.209
3051 1 -13.7273 -7.0189 -15.7408 -13.7273 -7.0189 17.9165
1175 1 -11.7152 -7.57841 -16.4991 -11.7152 -7.57841 -16.4991
12522 1 -11.2817 -7.54783 -15.3581 -11.2817 -7.54783 -15.3581
2010 1 -12.8981 -7.73682 -15.6281 -12.8981 -7.73682 -15.6281
10949 1 -10.1256 -8.21059 -16.6028 23.5317 -8.21059 17.0544
1049 1 -10.7424 -6.44869 -16.8413 -10.7424 -6.44869 -16.8413
2736 1 -9.09587 -7.49477 -16.8274 -9.09587 -7.49477 16.8298
16312 1 -0.0167207 -9.81079 -15.7433 -0.0167207 23.8465 17.9139
4172 1 -7.02938 -7.26522 -15.3685 -7.02938 26.392 -15.3685
8503 1 -6.32678 -8.30617 -15.5064 -6.32678 -8.30617 -15.5064
1895 1 -5.36603 -8.08013 -16.6126 -5.36603 -8.08013 -16.6126
2250 1 -3.15145 -7.50255 -16.0873 -3.15145 -7.50255 17.57
1884 1 -2.23951 -8.30432 -16.379 -2.23951 -8.30432 -16.379
4373 1 -0.382026 -7.60564 -16.3526 -0.382026 -7.60564 -16.3526
58 1 -16.8185 -6.96573 -15.7125 -16.8185 -6.96573 -15.7125
7374 1 -13.2833 -5.87281 -16.3192 -13.2833 27.7844 17.3381
8616 1 -12.1633 -6.19809 -16.0284 -12.1633 -6.19809 -16.0284
7239 1 -10.1641 -7.11073 -15.3166 -10.1641 26.5465 18.3407
16305 1 -9.63516 -5.29617 -15.1866 -9.63516 -5.29617 18.4706
3881 1 -8.32128 -5.52993 -15.8376 -8.32128 -5.52993 17.8197
1639 1 -9.49618 -6.21552 -16.2807 -9.49618 -6.21552 -16.2807
5320 1 -6.25759 -5.98913 -15.7803 -6.25759 -5.98913 -15.7803
2185 1 -5.04435 -6.15717 -16.333 -5.04435 -6.15717 17.3242
5386 1 -2.92756 -6.14697 -16.0127 -2.92756 27.5103 -16.0127
8505 1 -3.91514 -6.32252 -16.3174 -3.91514 -6.32252 -16.3174
1152 1 -1.86478 -6.7282 -15.7182 -1.86478 -6.7282 17.9391
1965 1 -16.3204 -5.4928 -16.5017 -16.3204 -5.4928 -16.5017
791 1 -15.0212 -5.07677 -15.8426 -15.0212 -5.07677 -15.8426
3029 1 -14.093 -5.895 -15.2208 -14.093 -5.895 18.4365
4648 1 -11.9611 -4.50062 -16.2162 -11.9611 -4.50062 -16.2162
4607 1 -16.7019 -9.50991 -10.538 -16.7019 -9.50991 -10.538
4724 1 -10.8822 -3.80109 -15.9209 -10.8822 -3.80109 -15.9209
14832 1 -11.0974 -5.86198 -15.9192 -11.0974 -5.86198 17.7381
1700 1 -0.169939 -5.49004 -3.69467 -33.8272 -5.49004 -3.69467
12218 1 -7.99877 -4.43366 -16.3691 -7.99877 -4.43366 17.2881
3832 1 -4.73175 -4.80584 -16.5095 -4.73175 -4.80584 17.1478
11421 1 -1.69331 -4.97576 -16.376 31.9639 -4.97576 17.2813
1169 1 -2.76073 -5.12769 -16.6769 -2.76073 -5.12769 -16.6769
11978 1 -0.383949 -5.56047 -15.9742 -0.383949 -5.56047 17.6831
2501 1 -2.50632 -16.3965 -14.1761 -2.50632 -16.3965 19.4812
4178 1 -15.5452 -3.3185 -15.551 -15.5452 -3.3185 18.1063
1953 1 -15.1112 -4.07394 -16.6375 -15.1112 -4.07394 -16.6375
9864 1 -13.3842 -3.4039 -15.7255 -13.3842 -3.4039 -15.7255
5178 1 -12.3054 -3.75885 -15.0178 -12.3054 -3.75885 -15.0178
13690 1 -11.6551 -3.26672 -16.5855 22.0022 -3.26672 -16.5855
5740 1 -9.87977 -3.31646 -16.4581 -9.87977 -3.31646 -16.4581
3070 1 -9.51352 -4.2883 -15.8832 -9.51352 -4.2883 17.7741
1589 1 -8.77845 -3.2658 -15.7335 -8.77845 -3.2658 -15.7335
4321 1 -6.56646 -3.14487 -16.0518 -6.56646 -3.14487 -16.0518
8203 1 -6.42816 -4.39966 -15.9803 -6.42816 -4.39966 17.677
1690 1 -3.34775 -3.54792 -16.3245 -3.34775 -3.54792 -16.3245
5308 1 -5.62579 -3.53546 -15.4081 -5.62579 -3.53546 -15.4081
4205 1 -3.36441 -2.64697 -15.0695 -3.36441 31.0103 -15.0695
160 1 -2.31184 -3.18242 -15.432 -2.31184 -3.18242 -15.432
5536 1 -1.17148 -0.24305 -14.331 -1.17148 -0.24305 -14.331
6916 1 -15.7881 -2.22289 -15.9963 17.8692 -2.22289 17.6609
4094 1 -14.7027 -1.77593 -15.6166 -14.7027 -1.77593 -15.6166
8760 1 -14.6931 -2.52621 -16.825 18.9642 -2.52621 -16.825
4005 1 -14.0848 -2.78905 -14.9555 -14.0848 -2.78905 18.7017
8128 1 -12.6066 -2.4751 -15.9957 -12.6066 -2.4751 17.6615
13904 1 -11.7518 -2.40031 -14.8067 -11.7518 -2.40031 -14.8067
5616 1 -11.4966 -1.97373 -16.2297 -11.4966 -1.97373 -16.2297
2927 1 -9.85154 -2.16465 -16.5512 -9.85154 -35.8219 17.106
13282 1 -8.74086 -2.07374 -15.1498 24.9164 -2.07374 -15.1498
6509 1 -6.89498 -1.58363 -15.9291 -6.89498 -1.58363 17.7282
983 1 -13.147 -0.100664 -10.1138 -13.147 -0.100664 -10.1138
6586 1 -7.35433 -16.0466 -8.70369 -7.35433 17.6107 -8.70369
3802 1 -1.58855 -2.11101 -16.2138 -1.58855 -2.11101 17.4435
4974 1 -2.89831 -1.79388 -16.2623 -2.89831 -1.79388 -16.2623
1093 1 -0.294786 -2.1716 -16.2055 -0.294786 -2.1716 -16.2055
14925 1 -16.194 -0.443535 -16.1311 17.4633 -0.443535 17.5261
8155 1 -14.3485 -0.539431 -14.9912 -14.3485 -0.539431 18.6661
2597 1 -13.3807 -1.10351 -16.1573 -13.3807 -1.10351 17.5
5623 1 -12.1876 -1.10449 -15.4998 -12.1876 -1.10449 -15.4998
12646 1 -13.3456 -16.496 -5.14293 20.3116 17.1612 -5.14293
9071 1 -0.11269 -1.84015 -3.25495 -0.11269 -1.84015 -3.25495
5951 1 -9.48474 -1.04716 -16.0423 -9.48474 -1.04716 -16.0423
12420 1 -6.29364 -0.443168 -16.64 27.3636 -0.443168 -16.64
4345 1 -7.94457 -0.995614 -15.8567 -7.94457 -0.995614 -15.8567
2505 1 -4.49542 -0.242139 -16.2203 -4.49542 -0.242139 17.437
13261 1 -1.09976 -0.081244 -16.3326 -1.09976 33.576 -16.3326
5383 1 -2.24778 -0.775105 -16.2011 -2.24778 -0.775105 -16.2011
13563 1 -1.17541 -1.09576 -15.8006 -1.17541 -1.09576 -15.8006
11107 1 -4.61839 -15.5714 -16.676 29.0389 -15.5714 16.9813
1176 1 -16.2822 -16.4704 -14.2764 -16.2822 -16.4704 -14.2764
13065 1 -15.5457 -15.3783 -14.537 -15.5457 18.2789 -14.537
15029 1 -13.4908 -16.3705 -14.7227 -13.4908 -16.3705 18.9345
12255 1 -0.204317 -1.18124 -13.0303 -0.204317 -1.18124 20.6269
1743 1 -8.97022 -15.1521 -15.1658 -8.97022 -15.1521 -15.1658
12861 1 -8.96364 -16.5491 -13.9732 -8.96364 17.1082 -13.9732
10161 1 -7.30417 -16.2234 -15.913 26.3531 -16.2234 -15.913
12478 1 -7.59264 -16.2138 -14.0774 26.0646 17.4435 -14.0774
9935 1 -5.43407 -10.5802 -16.7543 28.2232 -10.5802 16.903
8868 1 -5.76716 -15.5504 -14.6666 -5.76716 -15.5504 -14.6666
7538 1 -4.29843 -16.5368 -15.9093 -4.29843 17.1205 17.7479
5700 1 -4.21943 -15.8028 -14.1839 -4.21943 17.8545 -14.1839
4784 1 -0.237424 -5.34092 -7.91161 -0.237424 -5.34092 -7.91161
3819 1 -8.79498 -0.39002 -7.98408 -8.79498 -0.39002 25.6732
14263 1 -13.6853 -3.13971 -16.7724 -13.6853 -3.13971 -16.7724
8100 1 -14.5004 -15.0671 -13.4188 -48.1576 18.5902 20.2385
2624 1 -13.521 -15.237 -14.9506 -13.521 -15.237 18.7066
8965 1 -11.1369 -15.2888 -15.0402 22.5204 -15.2888 -15.0402
14931 1 -12.3103 -14.639 -14.1571 21.3469 19.0183 19.5001
7456 1 -10.7553 -14.3682 -15.0426 -10.7553 19.2891 -15.0426
934 1 -9.2072 -14.0588 -14.4517 -9.2072 -14.0588 -14.4517
3127 1 -7.6881 -14.2203 -14.4392 -7.6881 -14.2203 19.2181
16382 1 -6.88425 -15.4301 -14.2017 -6.88425 18.2271 -14.2017
1925 1 -4.15295 -14.7608 -13.946 -4.15295 -14.7608 -13.946
13447 1 -2.56957 -14.0584 -15.6533 31.0877 19.5989 -15.6533
9630 1 -2.82308 -15.1707 -14.6732 -2.82308 -15.1707 -14.6732
3423 1 -1.20813 -15.6935 -14.7564 -1.20813 -15.6935 18.9009
12351 1 -0.784633 -14.6566 -14.3256 32.8726 19.0007 -14.3256
15396 1 -16.5969 -13.5919 -14.8683 17.0604 20.0654 18.789
1431 1 -15.1608 -12.9977 -14.9164 -15.1608 -12.9977 -14.9164
3649 1 -15.1348 -14.4047 -14.1418 -15.1348 -14.4047 19.5154
7042 1 -13.5594 -12.8327 -14.5475 -13.5594 20.8246 19.1098
4219 1 -13.7081 -13.9698 -14.4469 -13.7081 19.6875 -14.4469
1812 1 -12.8607 -13.6814 -14.9543 -12.8607 -13.6814 -14.9543
13813 1 -9.69047 -13.2243 -15.4791 23.9668 20.433 -15.4791
1251 1 -10.8421 -13.6571 -13.9099 -10.8421 20.0001 -13.9099
1535 1 -8.68081 -14.1346 -15.7359 -8.68081 -14.1346 17.9214
597 1 -7.63184 -12.7175 -14.3386 -41.2891 -12.7175 19.3187
4689 1 -5.24168 -13.1145 -14.7119 -5.24168 -13.1145 -14.7119
357 1 -3.90794 -13.6576 -14.9557 -3.90794 -13.6576 -14.9557
9183 1 -1.51537 -13.1839 -14.8005 -1.51537 -13.1839 -14.8005
3551 1 -2.65155 -13.8033 -14.6267 -2.65155 -13.8033 -14.6267
9896 1 -1.25029 -13.7362 -15.8975 -1.25029 -13.7362 -15.8975
13271 1 -16.3738 -11.3629 -14.7152 17.2835 22.2943 -14.7152
13836 1 -4.95102 -3.60574 -16.518 28.7062 -3.60574 -16.518
8786 1 -14.9622 -10.9896 -14.5098 18.6951 -10.9896 -14.5098
10172 1 -14.4576 -12.1525 -14.796 19.1996 -12.1525 -14.796
4665 1 -11.9921 -12.6397 -14.4027 -11.9921 21.0176 -14.4027
5923 1 -11.1432 -12.3531 -15.1271 -11.1432 -12.3531 -15.1271
9435 1 -8.51217 -12.4211 -14.9918 25.1451 -12.4211 -14.9918
733 1 -7.74049 -11.5379 -14.9698 -7.74049 -11.5379 -14.9698
4817 1 -6.30627 -13.0628 -15.2992 -6.30627 20.5944 -15.2992
8036 1 -6.95036 -11.3289 -14.0996 -6.95036 22.3284 19.5576
951 1 -5.89353 -12.158 -15.0292 -5.89353 -12.158 -15.0292
8173 1 -4.45041 -11.6909 -14.8856 -4.45041 21.9664 18.7716
1521 1 -4.03641 -12.8558 -14.0793 -4.03641 -12.8558 -14.0793
8255 1 -3.06147 -12.5284 -15.8415 -3.06147 -12.5284 -15.8415
5990 1 -2.94201 -12.5314 -14.2347 -2.94201 -12.5314 -14.2347
3683 1 -1.62655 -11.6734 -15.4741 -1.62655 -11.6734 18.1832
148 1 -0.247516 -13.2625 -14.6448 -0.247516 -13.2625 -14.6448
12696 1 -16.3143 -10.2515 -13.53 17.3429 23.4057 -13.53
12056 1 -14.6225 -9.9486 -15.2547 -14.6225 -9.9486 18.4025
11112 1 -13.8334 -11.8013 -15.8827 19.8239 -11.8013 17.7745
11856 1 -13.1179 -11.0869 -14.0435 20.5393 -11.0869 19.6138
1435 1 -12.189 -11.1788 -15.2562 -12.189 -11.1788 -15.2562
2261 1 -10.7094 -11.1029 -15.1781 -10.7094 -11.1029 18.4791
1802 1 -9.09811 -10.8313 -15.1644 -9.09811 -10.8313 -15.1644
1305 1 -7.73825 -9.87759 -15.6621 -7.73825 -9.87759 -15.6621
8083 1 -5.65481 -10.4556 -13.8216 -5.65481 -10.4556 19.8357
1537 1 -5.09022 -10.1657 -14.7563 -5.09022 -10.1657 -14.7563
12016 1 -3.03971 -11.0266 -14.7858 -3.03971 -11.0266 18.8715
995 1 -1.37809 -10.0609 -15.2518 -1.37809 -10.0609 -15.2518
10961 1 -2.33789 -11.4028 -14.1026 -2.33789 -11.4028 19.5547
8217 1 -0.810024 -11.3255 -14.8561 -0.810024 -11.3255 -14.8561
749 1 -15.8329 -9.3585 -13.5061 -15.8329 -9.3585 -13.5061
5025 1 -14.7114 -8.24335 -16.1427 -14.7114 -8.24335 -16.1427
15275 1 -12.543 -8.72687 -15.2243 21.1142 -8.72687 18.4329
5986 1 -13.0505 -9.91965 -14.7609 -13.0505 -9.91965 -14.7609
6982 1 -13.7229 -8.82928 -14.0854 -13.7229 -8.82928 19.5718
14935 1 -12.2058 -9.26476 -13.5263 -12.2058 -9.26476 20.131
14478 1 -11.2912 -9.96616 -14.6918 22.3661 23.6911 -14.6918
480 1 -9.74571 -9.31923 -14.6128 -9.74571 -9.31923 -14.6128
11538 1 -8.36256 -9.52938 -14.5456 25.2947 -9.52938 19.1116
4715 1 -7.81172 -8.74585 -14.2191 -7.81172 24.9114 -14.2191
2214 1 -6.62357 -10.2875 -15.0328 -6.62357 -10.2875 18.6245
11584 1 -6.34519 -8.44515 -14.3299 -6.34519 -8.44515 19.3273
10054 1 -5.17398 -8.75261 -15.0598 -5.17398 -8.75261 -15.0598
11381 1 -3.06709 -9.93938 -15.1332 30.5902 -9.93938 18.5241
310 1 -3.84468 -8.81218 -14.6822 -3.84468 -8.81218 -14.6822
8415 1 -0.808938 -8.7986 -15.5792 -0.808938 -8.7986 -15.5792
4796 1 -1.40983 -9.79118 -14.1262 -1.40983 -9.79118 -14.1262
15631 1 -16.1008 -7.95741 -15.7468 17.5564 25.6998 17.9104
10724 1 -14.81 -7.72543 -14.5371 -14.81 -7.72543 19.1201
6334 1 -13.2058 -7.2763 -13.9773 -13.2058 -7.2763 19.68
740 1 -11.9723 -7.93301 -14.5327 -11.9723 -7.93301 -14.5327
741 1 -9.23736 -8.43699 -15.153 -9.23736 -8.43699 -15.153
1843 1 -8.95513 -7.90855 -14.2346 -8.95513 -7.90855 -14.2346
4995 1 -8.03265 -7.74725 -15.7716 -8.03265 -7.74725 -15.7716
1481 1 -4.05112 -7.69027 -15.4916 -4.05112 -7.69027 -15.4916
9002 1 -2.94378 -7.0421 -14.6784 -2.94378 -7.0421 -14.6784
7430 1 -2.26651 -8.28485 -15.0357 -2.26651 -8.28485 18.6216
2324 1 -1.27367 -7.32889 -15.1834 -1.27367 -7.32889 18.4738
2572 1 -14.7094 -6.14526 -16.1236 -14.7094 -6.14526 17.5336
1894 1 -15.994 -6.5 -15.2253 -15.994 -6.5 -15.2253
12159 1 -14.693 -6.72108 -14.1272 -14.693 -6.72108 19.5301
1912 1 -12.718 -6.7549 -15.0102 -12.718 -6.7549 -15.0102
2611 1 -11.8044 -6.46615 -14.6716 -11.8044 -6.46615 18.9856
7227 1 -10.8425 -5.86921 -14.5121 -10.8425 -5.86921 -14.5121
14402 1 -8.94118 -7.28504 -15.4053 24.7161 -7.28504 18.2519
12190 1 -8.16387 -6.40832 -15.0902 -8.16387 -6.40832 18.567
3889 1 -6.22833 -6.38944 -14.0692 -6.22833 -6.38944 -14.0692
3130 1 -5.7969 -7.25872 -15.7146 -5.7969 -7.25872 17.9427
2117 1 -3.91471 -5.56332 -14.2402 -3.91471 -5.56332 -14.2402
15143 1 -2.39797 -5.537 -15.01 -2.39797 -5.537 18.6473
11717 1 -0.813807 -5.59013 -15.0073 -0.813807 -5.59013 -15.0073
10490 1 -16.5591 -5.07898 -15.5274 17.0981 -5.07898 18.1298
9678 1 -15.1655 -4.35769 -14.6198 18.4917 -4.35769 -14.6198
9133 1 -14.9147 -5.32259 -13.9118 18.7426 -5.32259 -13.9118
4789 1 -14.085 -4.16198 -15.436 -14.085 -4.16198 -15.436
6501 1 -12.5794 -3.91555 -14.0175 -12.5794 -3.91555 19.6398
11013 1 -14.0564 -4.38553 -13.6638 19.6008 -4.38553 19.9935
8921 1 -12.4088 -5.1781 -15.2855 -12.4088 -5.1781 -15.2855
9266 1 -11.349 -4.68419 -14.6723 22.3082 -4.68419 -14.6723
15923 1 -9.29802 -4.53543 -14.348 24.3592 -4.53543 19.3092
914 1 -8.24862 -4.65067 -14.6379 -8.24862 -4.65067 -14.6379
2873 1 -7.31983 -5.69427 -15.4407 -7.31983 -5.69427 18.2166
1408 1 -5.92205 -4.6946 -14.3334 -5.92205 -4.6946 -14.3334
6214 1 -5.47384 -6.36683 -14.846 -5.47384 -6.36683 18.8113
16068 1 -3.94173 -5.2489 -15.7035 29.7155 -5.2489 -15.7035
1590 1 -3.66971 -4.52008 -14.1371 -3.66971 -4.52008 -14.1371
10574 1 -1.62834 -4.07167 -14.8961 -1.62834 -4.07167 18.7612
5094 1 -16.465 -3.95701 -14.8446 -16.465 -3.95701 -14.8446
15893 1 -13.4246 -3.40769 -14.3674 -13.4246 -3.40769 19.2899
8744 1 -11.3892 -3.44538 -14.2839 22.268 -3.44538 -14.2839
2264 1 -9.89899 -3.33338 -14.2741 -9.89899 -3.33338 19.3832
9756 1 -8.63214 -3.17752 -14.0576 25.0251 -36.8348 -14.0576
696 1 -6.95991 -4.47353 -14.9765 -6.95991 -4.47353 -14.9765
10958 1 -6.23237 -3.52272 -13.9685 -6.23237 -3.52272 19.6888
13501 1 -4.32424 -3.89746 -14.8057 -4.32424 -3.89746 -14.8057
5248 1 -2.92157 -3.70261 -13.9337 -2.92157 -3.70261 -13.9337
573 1 -3.00753 -4.68444 -15.4464 -3.00753 -4.68444 -15.4464
4691 1 -1.83071 -3.64221 -13.8711 -1.83071 -3.64221 -13.8711
2049 1 -1.12 -2.57566 -15.3948 -1.12 -2.57566 18.2624
8131 1 -0.568866 -3.82901 -14.6569 -0.568866 -3.82901 -14.6569
4109 1 -0.93035 -3.95529 -16.2191 -0.93035 -3.95529 -16.2191
9060 1 -16.002 -2.01727 -14.3479 17.6552 -2.01727 -14.3479
10751 1 -14.5794 -3.09435 -14.0139 19.0779 -3.09435 19.6433
266 1 -14.9694 -1.4602 -13.844 -14.9694 -1.4602 -13.844
4082 1 -13.1898 -1.82599 -14.9613 -13.1898 -1.82599 -14.9613
9221 1 -10.427 -2.33999 -15.6768 -10.427 -2.33999 -15.6768
12555 1 -10.9445 -1.71592 -14.4884 22.7127 -1.71592 -14.4884
4597 1 -7.63863 -3.15309 -15.2551 -7.63863 -3.15309 -15.2551
9395 1 -8.0553 -1.45525 -14.525 25.602 -1.45525 -14.525
7703 1 -6.73276 -2.44948 -14.7609 -6.73276 -2.44948 18.8964
6725 1 -5.32554 -1.80736 -15.2591 -5.32554 -1.80736 18.3982
7424 1 -4.13072 -1.50875 -15.3123 -4.13072 32.1485 18.3449
676 1 -2.23006 -2.17886 -14.1288 -2.23006 -2.17886 -14.1288
5765 1 -0.971186 -1.38949 -14.8168 -0.971186 -1.38949 -14.8168
7877 1 -15.6971 -1.15894 -14.9772 -15.6971 -1.15894 18.68
8776 1 -5.20269 -2.91494 -0.134376 -5.20269 -2.91494 -0.134376
4869 1 -13.8817 -0.497828 -13.6762 -13.8817 -0.497828 -13.6762
11361 1 -11.5138 -0.777528 -14.1474 22.1435 -0.777528 19.5098
4349 1 -11.1491 -0.750754 -15.9268 -11.1491 -0.750754 -15.9268
6485 1 -10.4874 -0.967223 -15.1316 -10.4874 32.69 18.5256
22 1 -9.4281 -1.04111 -14.4693 -9.4281 -1.04111 -14.4693
4470 1 -6.11366 -0.836379 -15.0392 -6.11366 -0.836379 -15.0392
7325 1 -5.11061 -1.41165 -13.7821 -5.11061 -1.41165 19.8752
14637 1 -4.47061 -0.292226 -14.935 -4.47061 -0.292226 -14.935
46 1 -1.94291 -1.06577 -14.5461 -1.94291 -1.06577 -14.5461
2429 1 -15.3654 -15.957 -12.8947 -15.3654 -15.957 20.7626
8046 1 -13.8859 -16.0881 -13.5104 -13.8859 17.5691 20.1468
2851 1 -12.0627 -15.5363 -12.9739 -12.0627 -15.5363 20.6833
1171 1 -11.0422 -16.6177 -14.2921 -44.6994 -16.6177 -14.2921
4054 1 -10.0064 -15.7624 -14.0709 -10.0064 -15.7624 19.5864
13962 1 -7.13655 -15.8757 -12.5678 26.5207 -15.8757 -12.5678
2941 1 -9.04813 -2.44959 -0.0807639 -9.04813 -2.44959 -0.0807639
11648 1 -5.85108 -15.7855 -13.5874 -5.85108 -15.7855 20.0698
6349 1 -4.80182 -15.812 -12.8568 -4.80182 17.8453 -12.8568
14054 1 -3.56636 -16.56 -13.2799 -3.56636 17.0972 -13.2799
8669 1 -2.31642 -16.0777 -12.9998 -2.31642 -16.0777 -12.9998
11646 1 -0.938492 -16.1505 -13.7377 -0.938492 -16.1505 19.9196
14116 1 -8.16448 -6.61473 -16.8021 25.4928 27.0425 -16.8021
4947 1 -2.71644 -15.96 -16.4533 -2.71644 17.6972 -16.4533
6879 1 -15.7689 -14.5916 -13.2835 -15.7689 19.0657 20.3737
1924 1 -14.8312 -14.8693 -12.3685 -14.8312 -14.8693 -12.3685
3063 1 -13.4833 -14.9815 -13.3801 -13.4833 -14.9815 20.2772
15758 1 -10.8452 -15.1832 -13.7286 22.8121 18.4741 -13.7286
124 1 -9.81068 -14.9668 -13.0238 -9.81068 -14.9668 -13.0238
7646 1 -8.22033 -14.8534 -13.723 -8.22033 18.8039 19.9343
13952 1 -7.03674 -14.3898 -12.5501 -7.03674 19.2674 -12.5501
5388 1 -5.60221 -14.2404 -12.8121 -5.60221 19.4168 -12.8121
9433 1 -3.3383 -15.26 -13.2253 -3.3383 -15.26 -13.2253
1814 1 -1.65005 -14.9699 -13.3035 -1.65005 -14.9699 -13.3035
4720 1 -2.57745 -14.182 -13.2475 -2.57745 19.4752 -13.2475
11694 1 -16.7368 -13.7942 -13.2952 16.9205 -13.7942 -13.2952
767 1 -14.4232 -13.5975 -13.3363 -14.4232 -13.5975 -13.3363
11865 1 -16.2361 -12.9334 -13.8103 17.4212 -12.9334 19.847
1290 1 -13.1844 -13.349 -12.6132 -13.1844 -13.349 -12.6132
13957 1 -11.8115 -13.1855 -13.1448 21.8458 20.4717 -13.1448
4514 1 -10.0697 -12.978 -13.6071 -10.0697 20.6793 -13.6071
11712 1 -8.59726 -12.8149 -13.8774 25.06 -12.8149 19.7799
523 1 -7.99898 -13.7342 -13.2597 -7.99898 -13.7342 -13.2597
4147 1 -6.33626 -14.2207 -13.7351 -6.33626 19.4366 -13.7351
3131 1 -6.29109 -13.0643 -12.3959 -6.29109 -13.0643 -12.3959
8402 1 -5.05465 -13.3199 -13.2633 -5.05465 -13.3199 -13.2633
2126 1 -4.01179 -13.6983 -13.2154 -4.01179 -13.6983 20.4418
4236 1 -3.48559 -13.0011 -12.2116 -3.48559 20.6562 -12.2116
15864 1 -1.69909 -12.402 -12.0899 -1.69909 21.2552 21.5673
13584 1 -1.3427 -13.9656 -12.9139 -1.3427 19.6917 -12.9139
12286 1 -0.610852 -12.9605 -13.3786 -0.610852 -12.9605 20.2786
849 1 -16.721 -11.7844 -12.3348 -16.721 -11.7844 -12.3348
12935 1 -15.2189 -12.6456 -13.0693 18.4383 -12.6456 -13.0693
14882 1 -14.1502 -12.5824 -13.6784 19.507 21.0749 19.9788
6302 1 -13.634 -11.7855 -12.9574 -13.634 21.8718 -12.9574
336 1 -11.3252 -11.43 -13.5578 -11.3252 -11.43 -13.5578
1331 1 -12.7989 -12.2269 -13.3769 -12.7989 -12.2269 -13.3769
9845 1 -10.3607 -11.383 -13.0186 23.2966 -11.383 -13.0186
2488 1 -8.29465 -11.6199 -13.4308 -8.29465 -11.6199 20.2264
8850 1 -9.24253 -10.9714 -13.2352 24.4147 -10.9714 -13.2352
7848 1 -9.78893 -11.9339 -14.3386 -9.78893 21.7234 19.3186
10676 1 -7.2757 -12.6221 -13.2524 -7.2757 -12.6221 -13.2524
1016 1 -5.65373 -12.2905 -13.2477 -5.65373 -12.2905 -13.2477
12623 1 -4.8138 -11.3615 -13.6221 28.8435 22.2958 -13.6221
3618 1 -3.11315 -11.978 -12.8879 -3.11315 -11.978 20.7694
2710 1 -1.69178 -12.4137 -13.3754 -1.69178 -12.4137 20.2819
5634 1 -15.2957 -5.01335 -0.107478 -15.2957 -5.01335 -0.107478
1375 1 -16.5608 -10.6493 -12.5805 -16.5608 -10.6493 -12.5805
11606 1 -15.2553 -10.9971 -13.2108 18.402 -10.9971 -13.2108
9577 1 -13.6655 -9.90754 -13.4396 19.9918 -9.90754 -13.4396
5720 1 -11.9106 -10.7148 -13.9891 -11.9106 22.9425 -13.9891
808 1 -10.0239 -10.7478 -12.3184 -10.0239 -10.7478 -12.3184
1761 1 -10.1938 -10.3863 -14.0921 -10.1938 -10.3863 -14.0921
899 1 -8.74377 -9.99841 -13.3391 -8.74377 -9.99841 -13.3391
1760 1 -7.28572 -10.3082 -14.1909 -7.28572 -10.3082 -14.1909
1461 1 -6.53429 -10.7886 -13.0759 -6.53429 -10.7886 -13.0759
6380 1 -4.08925 -10.5727 -13.0081 -4.08925 -10.5727 -13.0081
8172 1 -5.91957 -9.96279 -12.9604 -5.91957 -9.96279 -12.9604
6994 1 -2.32473 -10.9766 -12.9111 -2.32473 -10.9766 20.7461
2687 1 -0.791669 -10.6484 -13.3569 -34.4489 -10.6484 -13.3569
2623 1 -15.6618 -9.01902 -12.4013 -15.6618 -9.01902 21.2559
3528 1 -14.6333 -9.51233 -13.5896 -14.6333 -9.51233 -13.5896
12169 1 -10.032 -9.61876 -13.2895 -10.032 -9.61876 -13.2895
192 1 -10.473 -8.18318 -13.4219 -10.473 -8.18318 -13.4219
6929 1 -9.14731 -8.64042 -12.2914 -9.14731 -8.64042 -12.2914
9124 1 -7.00178 -8.63734 -12.4389 -7.00178 -8.63734 -12.4389
3074 1 -6.67579 -9.09465 -13.4177 -6.67579 -9.09465 20.2395
5290 1 -5.11117 -9.17124 -12.528 -5.11117 -9.17124 -12.528
4318 1 -3.81236 -9.67107 -13.6972 -3.81236 23.9862 -13.6972
13318 1 -4.10155 -8.75255 -12.5236 -4.10155 -8.75255 -12.5236
8804 1 -2.59846 -9.96317 -13.7221 -2.59846 -9.96317 -13.7221
15516 1 -2.48923 -9.06277 -12.5118 31.168 -9.06277 21.1455
9957 1 -0.45181 -9.41785 -13.1274 -0.45181 -9.41785 -13.1274
4007 1 -16.5019 -7.91363 -14.1362 -16.5019 -7.91363 19.5211
12580 1 -16.4521 -8.29073 -12.6274 -16.4521 -8.29073 -12.6274
335 1 -14.5557 -8.14119 -12.7007 -14.5557 -8.14119 -12.7007
10037 1 -13.2705 -8.06889 -13.1232 -13.2705 -8.06889 -13.1232
1090 1 -12.1064 -7.57594 -13.2128 -12.1064 -7.57594 -13.2128
4978 1 -10.8204 -7.49792 -14.2132 -10.8204 -7.49792 -14.2132
3405 1 -8.44205 -8.44618 -13.2217 -8.44205 -8.44618 20.4355
2054 1 -9.82785 -6.73954 -14.0317 -9.82785 -6.73954 19.6255
3523 1 -9.67136 -7.58969 -13.2002 -9.67136 -7.58969 20.4571
5155 1 -7.65389 -7.37515 -14.1129 -7.65389 26.2821 -14.1129
751 1 -6.60044 -7.80553 -13.4503 -6.60044 -7.80553 -13.4503
13517 1 -5.49392 -7.66813 -14.3536 -5.49392 25.9891 -14.3536
13632 1 -4.49652 -6.81517 -14.9779 -4.49652 -6.81517 -14.9779
10014 1 -3.70654 -7.86555 -14.1897 -3.70654 -7.86555 -14.1897
10259 1 -2.00457 -8.44609 -13.7776 -2.00457 -8.44609 -13.7776
11182 1 -2.99891 -7.42583 -12.1817 -2.99891 -7.42583 21.4756
797 1 -0.749057 -7.09682 -13.9983 -0.749057 -7.09682 -13.9983
4581 1 -1.03437 -8.29417 -13.313 -1.03437 -8.29417 -13.313
9339 1 -15.9664 -6.84922 -13.2958 17.6909 -6.84922 -13.2958
8224 1 -14.0461 -6.79365 -13.1719 19.6112 -40.4509 -13.1719
2398 1 -12.9013 -6.3359 -13.6825 -12.9013 -6.3359 19.9747
8056 1 -9.45587 -5.76883 -14.0321 -9.45587 -5.76883 19.6252
3363 1 -11.1831 -5.5497 -12.7718 -11.1831 -5.5497 20.8854
13950 1 -8.83316 -6.19426 -13.0697 -8.83316 -6.19426 -13.0697
3005 1 -7.53507 -5.70463 -13.7811 -7.53507 -5.70463 19.8762
15708 1 -6.02848 -5.1356 -13.3061 -6.02848 -5.1356 20.3512
1887 1 -5.16078 -6.20215 -13.6374 -5.16078 -6.20215 -13.6374
12840 1 -3.47043 -6.27762 -12.0483 -3.47043 27.3796 -12.0483
3004 1 -2.21185 -7.10548 -13.9969 -2.21185 -7.10548 19.6604
15509 1 -1.33323 -6.06271 -13.6837 -1.33323 -6.06271 19.9736
4566 1 -2.55061 -5.87808 -13.2194 -2.55061 27.7792 -13.2194
13477 1 -1.19068 -6.30223 -12.4255 -1.19068 27.355 -12.4255
12386 1 -15.1114 -4.31971 -12.8752 18.5459 -4.31971 -12.8752
10007 1 -16.6178 -15.0251 -13.7784 17.0395 -15.0251 -13.7784
7670 1 -16.297 -5.22785 -14.186 -16.297 -5.22785 19.4712
8524 1 -13.6903 -5.51871 -14.3833 19.9669 -5.51871 -14.3833
8062 1 -14.057 -5.73208 -12.9658 -14.057 -5.73208 20.6914
2303 1 -12.4845 -6.01319 -12.7892 -12.4845 -6.01319 20.8681
8475 1 -12.4878 -4.62418 -13.0837 21.1694 -4.62418 -13.0837
1975 1 -10.1752 -4.7402 -13.5025 -10.1752 -4.7402 -13.5025
621 1 -6.86988 -4.52782 -13.4083 -6.86988 -4.52782 -13.4083
570 1 -8.74323 -4.65917 -13.268 -8.74323 -4.65917 -13.268
12350 1 -4.83857 -5.09976 -14.5084 -4.83857 28.5575 -14.5084
5563 1 -5.38971 -4.14867 -13.2256 -5.38971 -4.14867 -13.2256
9368 1 -3.76257 -5.41334 -12.9799 -3.76257 -5.41334 -12.9799
1702 1 -2.20936 -4.89103 -13.8125 -2.20936 -4.89103 -13.8125
1798 1 -1.12657 -4.67416 -13.6466 -1.12657 -4.67416 -13.6466
10568 1 -0.876478 -5.30472 -12.458 -0.876478 -5.30472 21.1993
3468 1 -16.3963 -4.5028 -13.1833 -16.3963 -4.5028 20.4739
12427 1 -15.5788 -3.3558 -14.133 18.0785 -3.3558 -14.133
4903 1 -15.442 -3.34515 -12.5403 -15.442 -3.34515 -12.5403
737 1 -13.3725 -4.21838 -12.6023 -13.3725 -4.21838 -12.6023
9429 1 -11.8502 -3.19399 -13.1377 21.807 -36.8512 -13.1377
8097 1 -10.6242 -2.81511 -13.7894 -10.6242 -2.81511 19.8679
5089 1 -9.33551 -3.56228 -13.1731 -9.33551 -3.56228 -13.1731
13603 1 -7.43126 -3.04412 -13.5498 -7.43126 -3.04412 -13.5498
11445 1 -6.34115 -3.51993 -12.7297 27.3161 -3.51993 20.9275
6588 1 -5.82016 -2.58301 -12.6313 -5.82016 -2.58301 21.0259
2248 1 -3.54501 -3.67965 -12.8496 -3.54501 -3.67965 -12.8496
5538 1 -2.37626 -4.52615 -12.3368 -2.37626 -4.52615 -12.3368
13191 1 -1.0223 -3.04074 -13.4436 -1.0223 -3.04074 20.2137
190 1 -16.4886 -2.74136 -12.9314 -16.4886 -2.74136 -12.9314
4452 1 -13.4711 -3.1683 -12.7863 -13.4711 -3.1683 -12.7863
1023 1 -13.6994 -2.41393 -13.8488 -13.6994 -2.41393 -13.8488
15602 1 -11.4304 -2.07918 -13.3052 22.2269 -2.07918 20.3521
13678 1 -10.1067 -1.68271 -13.5358 -10.1067 -1.68271 -13.5358
9303 1 -8.45463 -1.97798 -13.3121 25.2026 -1.97798 -13.3121
6851 1 -7.22181 -1.81879 -12.9198 -7.22181 -1.81879 20.7375
1648 1 -5.13857 -2.64263 -14.2746 -5.13857 -2.64263 -14.2746
5052 1 -4.96288 -2.16848 -13.0691 -4.96288 -2.16848 -13.0691
324 1 -3.57851 -1.75385 -14.0948 -3.57851 -1.75385 -14.0948
13896 1 -4.01616 -2.71869 -12.877 -4.01616 -2.71869 -12.877
11792 1 -2.59476 -2.22055 -12.6989 -2.59476 -2.22055 20.9584
13395 1 -0.769727 -2.11377 -12.942 -0.769727 -2.11377 -12.942
13163 1 -15.8985 -1.50123 -13.2804 17.7587 -1.50123 -13.2804
2936 1 -15.0382 -0.685649 -13.1926 -15.0382 -0.685649 20.4647
6981 1 -12.7633 -0.0908578 -12.6509 -12.7633 -0.0908578 21.0064
1503 1 -12.7336 -1.75349 -13.5327 -12.7336 -35.4107 -13.5327
5666 1 -11.3461 -0.803717 -13.143 -11.3461 -0.803717 -13.143