ITEM: TIMESTEP
1000
ITEM: NUMBER OF ATOMS
16384
ITEM: BOX BOUNDS pp pp pp
-1.6828627036276380e+01 1.6828627036276380e+01
-1.6828627036276380e+01 1.6828627036276380e+01
-1.6828627036276380e+01 1.6828627036276380e+01
ITEM: ATOMS id type x y z xu yu zu
10873 1 -0.12488 -6.12693 -3.02497 -0.12488 -6.12693 -3.02497
15121 1 -12.6297 -16.3096 -15.3387 21.0276 17.3477 18.3186
7406 1 -13.1112 -15.325 -16.3729 -13.1112 18.3322 17.2844
7394 1 -9.20853 -15.6021 -16.7404 -9.20853 18.0551 16.9168
992 1 -3.34871 -0.055591 -7.682 -3.34871 -0.055591 -7.682
1372 1 -6.20219 -16.3486 -15.3221 -6.20219 -16.3486 -15.3221
5159 1 -4.11376 -16.5175 -15.9839 -4.11376 17.1397 -15.9839
7038 1 -3.1164 -15.9562 -16.735 -3.1164 17.7011 16.9222
5496 1 -0.800993 -3.55611 -5.57714 -0.800993 -3.55611 -5.57714
12571 1 -2.42495 -16.869 -15.7679 -2.42495 16.7882 -15.7679
5581 1 -3.99813 -16.3119 -12.5078 -3.99813 17.3454 -12.5078
12359 1 -0.421183 -1.79704 -0.114454 33.2361 -1.79704 -0.114454
11966 1 -15.0688 -14.3199 -16.6374 18.5885 -14.3199 17.0198
554 1 -13.7512 -15.1466 -15.3364 -13.7512 -15.1466 -15.3364
1740 1 -12.8993 -14.3768 -15.6022 20.7579 -14.3768 -15.6022
6164 1 -4.57772 0.00163899 -11.2535 -4.57772 0.00163899 22.4038
1812 1 -10.4178 -15.1546 -16.0235 -10.4178 -15.1546 -16.0235
4859 1 -8.82915 -13.9338 -15.7454 -8.82915 19.7235 -15.7454
7332 1 -8.03733 -15.8438 -15.5618 -8.03733 17.8135 18.0955
9435 1 -6.7681 -15.026 -16.4978 26.8892 -15.026 -16.4978
6376 1 -5.25099 -15.7505 -15.82 -5.25099 17.9067 17.8372
5221 1 -2.57336 -14.3305 -16.5218 -2.57336 19.3268 -16.5218
8669 1 -3.29952 -15.0859 -16.1741 -3.29952 -15.0859 -16.1741
8255 1 -3.20252 -13.6025 -15.5614 -3.20252 -13.6025 -15.5614
15718 1 -0.692277 -15.1897 -16.454 -0.692277 18.4676 -16.454
2729 1 -15.2685 -12.8317 -16.6861 -15.2685 -12.8317 16.9712
6965 1 -14.0125 -14.328 -16.0369 -14.0125 19.3292 17.6203
1251 1 -12.2707 -12.9056 -16.0545 -12.2707 20.7517 -16.0545
1331 1 -11.5306 -12.397 -15.3604 -11.5306 -12.397 -15.3604
11190 1 -10.7346 -13.7242 -15.7438 -10.7346 -13.7242 17.9135
3519 1 -10.4855 -11.8408 -15.7979 -10.4855 -11.8408 17.8594
828 1 -10.4174 -16.2329 -10.71 -10.4174 -16.2329 -10.71
1723 1 -8.53428 -12.3761 -16.6687 -8.53428 -12.3761 -16.6687
3293 1 -6.53988 -14.6299 -15.4665 -6.53988 -14.6299 18.1907
10749 1 -4.71005 -13.2399 -16.5968 -4.71005 -13.2399 -16.5968
4572 1 -4.29287 -14.4121 -15.6255 -4.29287 19.2452 -15.6255
1925 1 -3.5716 -12.4546 -16.434 -3.5716 -12.4546 -16.434
12244 1 -1.14045 -12.6397 -15.3754 32.5168 -12.6397 18.2818
13157 1 -2.06831 -13.1512 -15.6941 -2.06831 20.5061 -15.6941
10140 1 -1.86885 -0.321099 -15.9601 -1.86885 -0.321099 -15.9601
1871 1 -16.0836 -11.9562 -16.1001 -16.0836 -11.9562 17.5571
5662 1 -16.2006 -11.5191 -14.9676 -16.2006 22.1382 -14.9676
15107 1 -14.7884 -12.8515 -15.6906 18.8688 -12.8515 17.9667
11183 1 -10.7085 -0.134157 -4.08367 22.9487 -0.134157 -4.08367
3581 1 -13.3642 -12.4847 -16.3951 -13.3642 -12.4847 17.2621
1566 1 -13.387 -11.5743 -15.6472 -13.387 -11.5743 -15.6472
1978 1 -13.7162 -11.1331 -16.7843 -13.7162 -11.1331 -16.7843
16381 1 -12.6933 -0.334134 -0.956077 20.9639 -0.334134 -0.956077
10949 1 -9.11769 -11.2214 -15.9299 24.5396 -11.2214 17.7274
6529 1 -7.49039 -11.3009 -16.3306 -7.49039 -11.3009 17.3266
1429 1 -4.73444 -12.568 -15.2575 -4.73444 -12.568 -15.2575
12016 1 -5.42169 -11.3508 -14.8998 -5.42169 -11.3508 18.7574
6523 1 -7.11792 -12.7859 -16.3535 -7.11792 20.8714 17.3038
1141 1 -4.51782 -0.104174 -2.5243 -4.51782 -0.104174 -2.5243
1724 1 -1.69416 -11.3682 -16.5343 -1.69416 -11.3682 -16.5343
1732 1 -3.36212 -10.4256 -16.3614 -3.36212 -10.4256 -16.3614
15834 1 -1.08442 -12.2803 -14.4463 -1.08442 -12.2803 19.211
603 1 -14.1353 -10.1537 -16.5881 -14.1353 -10.1537 -16.5881
4219 1 -12.4755 -10.5162 -16.2827 -12.4755 23.141 -16.2827
12827 1 -11.25 -10.9864 -16.2579 -11.25 22.6708 -16.2579
8215 1 -11.9126 -9.94092 -15.3777 -11.9126 23.7163 18.2796
1175 1 -9.67495 -9.97533 -16.1928 -9.67495 -9.97533 -16.1928
8173 1 -6.67639 -10.8779 -15.3721 -6.67639 22.7794 18.2852
3722 1 -8.30598 -9.92295 -16.2986 -8.30598 -9.92295 17.3586
8860 1 -5.27616 -10.6391 -16.4991 -5.27616 -10.6391 -16.4991
9433 1 -4.51404 -11.0453 -15.2656 -4.51404 -11.0453 -15.2656
10755 1 -10.5666 -0.294792 -6.71901 -10.5666 -0.294792 -6.71901
16141 1 -15.6384 -9.43429 -16.5407 18.0189 -9.43429 17.1166
12192 1 -14.5831 -9.2355 -16.5476 19.0741 -9.2355 17.1097
179 1 -13.5222 -9.64794 -15.8338 -13.5222 -9.64794 -15.8338
3528 1 -12.4623 -9.03275 -15.3077 -12.4623 -9.03275 -15.3077
3071 1 -14.2223 -16.6481 -1.26177 -14.2223 -16.6481 -1.26177
5503 1 -11.2489 -9.10672 -15.9501 -11.2489 24.5505 -15.9501
13617 1 -10.4006 -9.17684 -15.041 -10.4006 24.4804 -15.041
13108 1 -16.5122 -12.2011 -5.69188 17.145 21.4562 -5.69188
9305 1 -11.6203 -16.8006 -13.2749 -11.6203 -16.8006 -13.2749
3551 1 -5.13244 -10.1559 -15.5147 -5.13244 -10.1559 -15.5147
10054 1 -5.02939 -8.93372 -15.7634 -5.02939 -8.93372 -15.7634
4689 1 -4.42669 -9.68891 -16.7707 -4.42669 -9.68891 -16.7707
15709 1 -0.669251 -8.741 -15.3123 -0.669251 24.9163 -15.3123
6399 1 -0.574859 -0.932917 -0.893429 -0.574859 -0.932917 -0.893429
3029 1 -12.9849 -4.45343 -16.5984 -12.9849 -4.45343 17.0588
5205 1 -16.6715 -3.62348 -4.3174 -16.6715 -3.62348 -4.3174
3511 1 -15.7979 -6.55387 -15.8406 -15.7979 -6.55387 17.8166
14935 1 -11.9483 -7.79569 -15.701 -11.9483 -7.79569 17.9562
10703 1 -0.312236 -7.09472 0.00896491 -0.312236 -7.09472 0.00896491
16305 1 -11.0806 -8.40422 -16.7015 -11.0806 -8.40422 16.9557
1536 1 -7.5789 -8.46893 -15.7924 -7.5789 -8.46893 -15.7924
2147 1 -8.9677 -7.86054 -15.1891 -8.9677 -7.86054 18.4682
7639 1 -6.5828 -8.2336 -16.6455 -6.5828 -8.2336 17.0118
2873 1 -5.42677 -6.81181 -16.5364 -5.42677 -6.81181 17.1208
15702 1 -6.31255 -0.744193 -1.0974 27.3447 -0.744193 -1.0974
8083 1 -3.73114 -7.0971 -14.9715 -3.73114 -7.0971 18.6858
8503 1 -1.60561 -7.69573 -15.4674 -1.60561 -7.69573 -15.4674
6152 1 -12.4333 -16.688 -2.66447 -12.4333 16.9693 -2.66447
4994 1 -6.82364 -1.64081 -16.5088 -6.82364 -1.64081 -16.5088
1992 1 -7.76426 -16.6242 -2.36951 -7.76426 -16.6242 -2.36951
64 1 -16.0798 -5.47902 -16.1517 -16.0798 -5.47902 -16.1517
13357 1 -0.230221 -5.07751 -8.20486 33.427 -5.07751 -8.20486
2863 1 -8.49799 -0.0532455 -2.08171 -8.49799 -0.0532455 31.5755
6334 1 -12.5871 -6.24162 -15.4336 -12.5871 -6.24162 18.2237
335 1 -11.7374 -6.89312 -15.0638 -11.7374 -6.89312 -15.0638
6982 1 -10.8562 -6.62087 -16.1764 -10.8562 -6.62087 17.4809
12503 1 -9.04119 -6.33663 -15.3626 24.6161 27.3206 -15.3626
15658 1 -16.7846 -5.74308 -10.162 16.8726 -5.74308 -10.162
11538 1 -8.03602 -6.89972 -15.7168 25.6212 -6.89972 17.9404
7664 1 -12.2537 -16.7838 -1.01275 -12.2537 16.8734 -1.01275
7442 1 -16.0953 -0.761281 -10.9143 17.5619 -0.761281 22.7429
4715 1 -4.20878 -6.42614 -16.3299 -4.20878 27.2311 -16.3299
2324 1 -1.74005 -6.49246 -14.8068 -1.74005 -6.49246 18.8504
611 1 -16.3009 -6.83109 -6.432 -16.3009 -6.83109 -6.432
10751 1 -15.1387 -4.68084 -16.0512 18.5186 -4.68084 17.6061
4711 1 -13.6917 -4.81813 -15.211 -13.6917 28.8391 -15.211
10069 1 -12.3536 -4.92687 -15.7573 21.3037 -4.92687 -15.7573
2649 1 -11.4714 -5.30008 -16.4045 -11.4714 -5.30008 17.2527
1469 1 -7.87684 -0.58428 -1.21849 -7.87684 -0.58428 -1.21849
3405 1 -7.76835 -4.85672 -15.2828 -7.76835 -4.85672 18.3744
2611 1 -6.44085 -5.97355 -15.5971 -6.44085 -5.97355 18.0602
13563 1 -3.71592 -4.71152 -15.932 -3.71592 -4.71152 -15.932
81 1 -3.24706 -5.63322 -16.4934 -3.24706 -5.63322 -16.4934
15509 1 -2.42262 -4.0642 -15.861 -2.42262 -4.0642 17.7963
10316 1 -0.48425 -5.31842 -16.6619 -0.48425 -5.31842 16.9954
5386 1 -1.96076 -6.51034 -16.1656 -1.96076 27.1469 -16.1656
13261 1 -0.160676 -0.494796 -16.7047 -0.160676 33.1625 -16.7047
1363 1 -12.5643 -2.95291 -16.6034 -12.5643 -2.95291 -16.6034
2303 1 -11.558 -3.87244 -15.9343 -11.558 -3.87244 17.723
356 1 -10.1114 -3.11039 -16.4362 -10.1114 -3.11039 -16.4362
2264 1 -9.39154 -3.308 -15.0285 -9.39154 -3.308 18.6288
3200 1 -0.151318 -1.99946 -7.11721 -33.8086 -1.99946 26.54
4995 1 -6.69489 -4.43582 -16.3012 -6.69489 -4.43582 -16.3012
3424 1 -5.66454 -3.85046 -16.5504 -5.66454 -3.85046 17.1068
13436 1 -3.28711 -3.40942 -16.7325 -3.28711 30.2478 -16.7325
6214 1 -4.48234 -3.83864 -16.4761 -4.48234 -3.83864 17.1812
13292 1 -1.58541 -3.14351 -16.5985 -1.58541 -3.14351 -16.5985
1169 1 -0.0263721 -4.06514 -16.3793 -0.0263721 -4.06514 -16.3793
13917 1 -5.49276 -16.5288 -1.69166 28.1645 17.1284 -1.69166
7648 1 -0.427175 -2.61785 -9.63263 -0.427175 -2.61785 24.0246
9644 1 -14.5785 -0.40049 -6.82034 19.0788 -0.40049 -6.82034
323 1 -15.2567 -2.09048 -14.6662 -15.2567 -2.09048 -14.6662
9339 1 -13.6578 -2.08772 -15.9207 19.9995 -2.08772 -15.9207
13690 1 -11.1791 -1.94219 -15.9977 22.4781 -1.94219 -15.9977
12420 1 -9.40411 -2.19876 -16.5909 24.2531 -2.19876 -16.5909
2453 1 -10.5094 -0.351788 -1.35947 -10.5094 -0.351788 -1.35947
1882 1 -7.11939 -2.77542 -15.721 -7.11939 -2.77542 -15.721
5385 1 -5.24185 -1.88974 -14.9668 -5.24185 -1.88974 -14.9668
4496 1 -2.63721 -16.1652 -1.97095 -2.63721 17.4921 -1.97095
4522 1 -2.64483 -2.92913 -15.7944 -2.64483 -2.92913 -15.7944
3802 1 -2.57973 -1.4102 -16.4282 -2.57973 -1.4102 17.2291
11530 1 -1.08383 -2.10794 -16.7633 -1.08383 -2.10794 16.8939
11013 1 -15.1714 -0.992083 -15.5104 18.4858 -0.992083 18.1468
9060 1 -14.6514 -0.145775 -16.3409 19.0058 -0.145775 -16.3409
4299 1 -13.2717 -0.736126 -16.5889 -13.2717 -0.736126 -16.5889
10238 1 -14.5531 -1.29237 -16.563 19.1041 -1.29237 -16.563
3869 1 -11.5089 -0.597803 -16.0993 -11.5089 -0.597803 17.5579
11507 1 -10.396 -0.739301 -15.153 23.2613 -0.739301 18.5043
12912 1 -9.16421 -2.23015 -14.8309 24.493 -2.23015 18.8264
15923 1 -9.83796 -1.70671 -15.4228 23.8193 -1.70671 18.2345
5304 1 -7.28933 -0.284889 -16.289 -7.28933 33.3724 -16.289
1690 1 -5.63598 -1.65211 -16.7089 -5.63598 -1.65211 -16.7089
1093 1 -5.54293 -0.675841 -15.5056 -5.54293 -0.675841 -15.5056
12204 1 -3.46357 -0.152267 -15.4354 -3.46357 -0.152267 -15.4354
10294 1 -4.84172 -0.267333 -0.555742 -4.84172 -0.267333 -0.555742
15143 1 -0.607184 -1.27557 -16.0226 -0.607184 -1.27557 17.6347
671 1 -15.1836 -15.7297 -15.8459 -15.1836 -15.7297 -15.8459
3238 1 -14.3532 -16.5718 -15.4555 -14.3532 -16.5718 18.2017
1924 1 -13.1308 -16.2855 -13.7627 -13.1308 -16.2855 -13.7627
2372 1 -12.3463 -15.1104 -14.5066 -12.3463 -15.1104 19.1506
4514 1 -10.8012 -16.3928 -15.4146 -10.8012 17.2644 -15.4146
14445 1 -10.2937 -15.4164 -14.9659 23.3635 18.2409 18.6913
15064 1 -8.86654 -14.981 -15.2228 24.7907 -14.981 18.4345
472 1 -6.23738 -15.5135 -14.6855 -6.23738 -15.5135 -14.6855
1171 1 -7.2641 -16.2038 -14.8 -40.9213 -16.2038 -14.8
10321 1 -5.07012 -16.597 -14.0598 -5.07012 -16.597 19.5974
4720 1 -4.08302 -16.1747 -14.2839 -4.08302 17.4825 -14.2839
2354 1 -3.01173 -15.4507 -15.2933 -3.01173 -15.4507 18.3639
6113 1 -1.75038 -16.044 -14.8031 -1.75038 17.6132 -14.8031
5937 1 -0.256642 -15.5702 -15.3012 -0.256642 18.087 -15.3012
4887 1 -16.2232 -10.5674 -10.8566 -16.2232 23.0899 -10.8566
13955 1 -15.148 -14.192 -15.3233 18.5093 19.4652 -15.3233
10691 1 -5.49175 -12.0553 -15.9672 28.1655 -12.0553 17.6901
2429 1 -14.0025 -14.8743 -14.2784 -14.0025 -14.8743 19.3788
15396 1 -12.8346 -14.0217 -13.9937 20.8227 19.6355 19.6636
14187 1 -12.3026 -13.7271 -14.9355 21.3547 19.9301 -14.9355
4054 1 -9.63786 -13.9123 -14.8244 -9.63786 -13.9123 18.8328
8301 1 -7.94551 -14.5197 -15.5354 -7.94551 -14.5197 -15.5354
5916 1 -4.45155 -15.3589 -14.8898 -4.45155 18.2984 -14.8898
5700 1 -5.21584 -14.6397 -13.556 -5.21584 19.0175 -13.556
3482 1 -4.56726 -13.5227 -14.3898 -4.56726 20.1346 19.2674
5300 1 -2.14081 -15.6563 -16.1076 -2.14081 18.001 -16.1076
9415 1 -16.0312 -12.7576 -15.2305 17.6261 -12.7576 -15.2305
2399 1 -15.28 -13.9602 -13.8265 -15.28 -13.9602 19.8308
1176 1 -14.1561 -13.0903 -14.9342 -14.1561 -13.0903 -14.9342
7900 1 -12.7627 -12.4484 -15.0259 -12.7627 21.2088 18.6314
7848 1 -8.25274 -12.821 -15.5565 -8.25274 20.8363 18.1007
13813 1 -9.57058 -12.859 -15.1246 24.0867 20.7983 -15.1246
3127 1 -5.50772 -13.9956 -14.9957 -5.50772 -13.9956 18.6616
12351 1 -3.32719 -13.7893 -13.8898 30.3301 19.868 -13.8898
12146 1 -2.13289 -14.0553 -14.6869 -2.13289 -14.0553 18.9703
9099 1 -1.64048 -14.1132 -16.1392 -1.64048 -14.1132 -16.1392
8734 1 -16.1413 -12.0737 -13.4442 17.5159 -12.0737 -13.4442
2051 1 -14.8219 -11.5833 -14.7817 -14.8219 -11.5833 18.8756
10488 1 -15.4418 -12.5883 -14.2405 18.2155 21.069 19.4168
2488 1 -11.791 -10.942 -14.9453 -11.791 -10.942 18.712
10172 1 -10.8986 -12.1305 -14.3753 22.7587 -12.1305 -14.3753
4147 1 -8.21594 -12.7463 -14.1597 -8.21594 20.911 -14.1597
336 1 -9.44235 -12.0078 -14.0923 -9.44235 -12.0078 -14.0923
15864 1 -7.50949 -12.0841 -14.7517 -7.50949 21.5731 18.9056
13962 1 -7.59609 -12.5819 -13.2104 26.0612 -12.5819 -13.2104
8868 1 -7.1376 -13.6453 -15.4777 -7.1376 -13.6453 -15.4777
2298 1 -2.8047 -11.7803 -15.7655 -2.8047 -11.7803 17.8918
13517 1 -3.44335 -12.6437 -14.9752 -3.44335 21.0135 -14.9752
6944 1 -2.68413 -10.9811 -14.6839 -2.68413 22.6762 18.9733
6428 1 -1.44655 -10.691 -14.579 -1.44655 22.9663 19.0782
4007 1 -15.8412 -10.1631 -15.6551 -15.8412 -10.1631 18.0022
55 1 -0.898079 -3.98855 -9.90465 -0.898079 -3.98855 -9.90465
319 1 -15.2099 -11.1117 -15.9819 -15.2099 -11.1117 -15.9819
11856 1 -13.5732 -10.3834 -15.1107 20.0841 -10.3834 18.5465
4235 1 -10.4837 -10.9463 -14.9669 -10.4837 22.7109 18.6904
2736 1 -10.3519 -8.8066 -13.731 -10.3519 -8.8066 19.9262
8036 1 -7.88136 -10.8268 -14.9812 -7.88136 22.8304 18.6761
3074 1 -7.27868 -10.1357 -14.033 -7.27868 -10.1357 19.6243
389 1 -6.03381 -9.95118 -14.2811 -6.03381 -9.95118 -14.2811
6174 1 -4.33864 -11.6888 -14.0518 -4.33864 -11.6888 19.6054
7037 1 -3.67324 -10.0338 -14.7135 -3.67324 23.6234 18.9437
10961 1 -1.61284 -10.0419 -16.1158 -1.61284 -10.0419 17.5415
11149 1 -3.24504 -9.0729 -16.4009 -3.24504 -9.0729 17.2563
8611 1 -0.224464 -9.78418 -12.9523 -0.224464 -9.78418 -12.9523
12056 1 -14.8335 -9.26367 -13.8333 -14.8335 -9.26367 19.824
1375 1 -15.6146 -9.01369 -15.3146 -15.6146 -9.01369 -15.3146
10043 1 -13.6687 -9.05721 -13.6024 19.9886 -9.05721 -13.6024
13271 1 -14.7683 -9.77805 -15.2536 18.889 23.8792 -15.2536
2361 1 -14.1843 -8.40641 -14.4127 -14.1843 -8.40641 19.2446
5986 1 -12.7767 -8.91266 -14.0176 -12.7767 -8.91266 -14.0176
5423 1 -10.6097 -7.34845 -14.798 -10.6097 -7.34845 -14.798
733 1 -8.9245 -10.3611 -14.7663 -8.9245 -10.3611 -14.7663
808 1 -8.41117 -9.40944 -14.5681 -8.41117 -9.40944 -14.5681
1426 1 -7.103 -9.71454 -15.1656 -7.103 -9.71454 -15.1656
1305 1 -6.46702 -9.02243 -15.8975 -6.46702 -9.02243 -15.8975
1017 1 -5.04444 -8.67906 -13.7874 -5.04444 -8.67906 -13.7874
5261 1 -2.84247 -8.06047 -14.6717 -2.84247 -8.06047 -14.6717
9300 1 -0.237315 -8.60656 -12.8374 -0.237315 -8.60656 -12.8374
7964 1 -16.0842 -7.65588 -16.2908 -16.0842 26.0014 17.3664
53 1 -13.9318 -8.35365 -15.7556 -13.9318 -42.0109 -15.7556
13260 1 -15.0876 -7.88741 -15.0934 18.5696 25.7698 -15.0934
11708 1 -12.8953 -6.9316 -14.5757 -12.8953 -6.9316 19.0816
12226 1 -11.9817 -7.39911 -14.2037 -11.9817 -7.39911 19.4536
1975 1 -9.72175 -5.63137 -13.9841 -9.72175 -5.63137 -13.9841
12522 1 -10.0139 -7.54308 -16.2928 -10.0139 -7.54308 -16.2928
4034 1 -8.81214 -9.0234 -15.734 -8.81214 -9.0234 17.9232
741 1 -9.4282 -7.11678 -14.3591 -9.4282 -7.11678 -14.3591
10984 1 -7.96958 -8.40262 -14.0572 25.6877 -8.40262 19.6
1843 1 -5.14782 -7.78084 -15.4047 -5.14782 -7.78084 -15.4047
10528 1 -4.1617 -8.54324 -14.8661 -4.1617 -8.54324 18.7911
4295 1 -3.85678 -8.28094 -15.9337 -3.85678 -8.28094 -15.9337
616 1 -0.769388 -9.03514 -14.0008 -0.769388 -9.03514 -14.0008
797 1 -3.26299 -7.92539 -13.6096 -3.26299 -7.92539 -13.6096
3015 1 -0.289647 -6.99935 -15.3694 -0.289647 -6.99935 18.2879
13987 1 -15.3325 -5.78776 -15.119 18.3248 -5.78776 -15.119
1965 1 -14.4083 -6.18159 -15.9923 -14.4083 -6.18159 -15.9923
5025 1 -10.2451 -6.17184 -15.3658 -10.2451 -6.17184 -15.3658
793 1 -11.4541 -5.95779 -13.8615 -11.4541 -5.95779 -13.8615
11445 1 -9.33947 -7.04057 -13.0406 24.3178 -7.04057 20.6167
12169 1 -7.84733 -7.50393 -14.8138 -7.84733 -7.50393 -14.8138
1760 1 -6.17138 -7.13066 -15.0508 -6.17138 -7.13066 -15.0508
11381 1 -5.1971 -6.61079 -15.2919 28.4602 -6.61079 18.3653
12350 1 -6.74924 -5.53269 -14.57 -6.74924 28.1246 -14.57
8505 1 -3.91432 -5.90809 -15.414 -3.91432 -5.90809 -15.414
1578 1 -4.39473 -6.44783 -14.2515 -4.39473 -6.44783 -14.2515
2117 1 -2.73972 -6.19789 -13.9312 -2.73972 -6.19789 -13.9312
2198 1 -16.6636 -4.96157 -14.9236 -16.6636 -4.96157 18.7336
9529 1 -15.079 -4.89628 -13.9172 18.5782 -4.89628 -13.9172
5522 1 -12.3888 -5.18342 -13.715 -12.3888 -5.18342 -13.715
480 1 -11.5583 -5.08994 -14.8723 -11.5583 -5.08994 -14.8723
3070 1 -10.2418 -4.33966 -15.217 -10.2418 -4.33966 18.4402
618 1 -8.43224 -5.62698 -13.532 25.225 -5.62698 -13.532
6 1 -9.38865 -5.01506 -15.5243 -9.38865 -5.01506 -15.5243
1866 1 -8.30644 -5.40875 -14.6101 -8.30644 -5.40875 -14.6101
3263 1 -6.95309 -4.05318 -14.2871 -6.95309 -4.05318 19.3702
10259 1 -4.82422 -5.01855 -15.4687 -4.82422 -5.01855 -15.4687
11792 1 -3.47155 -4.23597 -14.4181 -3.47155 -4.23597 19.2392
9673 1 -2.54792 -3.38256 -14.3848 -2.54792 -3.38256 -14.3848
11978 1 -1.26638 -4.80249 -15.5643 -1.26638 -4.80249 18.0929
7456 1 -11.6995 -16.6292 -15.8925 -11.6995 17.0281 -15.8925
1707 1 -15.6767 -3.38518 -15.7971 -15.6767 -3.38518 -15.7971
10490 1 -16.8811 -3.81708 -14.8318 16.7761 -3.81708 18.8254
6501 1 -13.6455 -3.75643 -16.0784 -13.6455 -3.75643 17.5789
4724 1 -10.6175 -3.12595 -15.577 -10.6175 -3.12595 -15.577
4789 1 -11.9066 -2.67483 -15.3198 -11.9066 -2.67483 -15.3198
2054 1 -9.38278 -4.24317 -13.7791 -9.38278 -4.24317 19.8782
11676 1 -8.47608 -3.58428 -14.4001 25.1812 -3.58428 19.2572
1032 1 -6.9951 -3.47219 -13.3935 -6.9951 -3.47219 -13.3935
621 1 -6.22658 -4.74464 -15.4624 -6.22658 -4.74464 -15.4624
160 1 -5.96843 -2.88368 -15.7562 -5.96843 -2.88368 -15.7562
696 1 -5.11394 -3.80278 -14.9305 -5.11394 -3.80278 -14.9305
5834 1 -1.46074 -3.02253 -14.3545 -1.46074 -3.02253 -14.3545
8716 1 -0.564187 -3.4417 -15.1632 -0.564187 -3.4417 -15.1632
4094 1 -16.1007 -2.05361 -15.7379 -16.1007 -2.05361 -15.7379
12580 1 -14.7279 -3.55642 -15.0037 -14.7279 -3.55642 -15.0037
15950 1 -12.953 -2.16707 -14.5371 20.7042 -2.16707 19.1202
6303 1 -11.1745 -1.48767 -14.2235 -11.1745 -1.48767 19.4338
10037 1 -10.4594 -2.38069 -14.6671 -10.4594 -2.38069 -14.6671
9303 1 -8.38278 -2.32227 -14.0045 25.2745 -2.32227 -14.0045
2110 1 -8.3682 -2.38598 -15.7152 -8.3682 -2.38598 17.9421
5308 1 -6.98181 -1.08715 -15.614 -6.98181 -1.08715 -15.614
4345 1 -6.50539 -2.92476 -14.7094 -6.50539 -2.92476 -14.7094
3747 1 -4.14439 -1.03095 -14.8745 -4.14439 -1.03095 18.7828
5248 1 -4.81842 -2.73715 -15.7105 -4.81842 -2.73715 -15.7105
2049 1 -3.81278 -2.73482 -15.6011 -3.81278 -2.73482 18.0561
12800 1 -0.277731 -2.34205 -15.2508 -0.277731 -2.34205 -15.2508
11163 1 -1.21328 -1.3939 -14.6524 -1.21328 -1.3939 19.0049
5841 1 -16.7205 -1.50583 -14.4047 -16.7205 -1.50583 -14.4047
6400 1 -0.0580767 -8.14051 -5.53135 -0.0580767 25.5167 -5.53135
7160 1 -13.5269 -0.887667 -15.3716 -13.5269 -0.887667 18.2856
12386 1 -13.3981 -0.364112 -13.9157 20.2591 -0.364112 -13.9157
2135 1 -12.4341 -1.14835 -15.0545 -12.4341 -1.14835 18.6028
13678 1 -8.78772 -0.8514 -14.3387 -8.78772 -0.8514 -14.3387
5740 1 -7.68808 -1.03662 -14.4209 -7.68808 -1.03662 -14.4209
9756 1 -8.33603 -1.15509 -15.3751 25.3212 -34.8123 -15.3751
12335 1 -14.1401 -6.60192 -0.172655 19.5171 -6.60192 -0.172655
86 1 -6.08621 -2.07058 -13.842 -6.08621 -2.07058 -13.842
1986 1 -3.76474 -1.2397 -15.9619 -3.76474 -1.2397 -15.9619
6851 1 -6.33114 -0.760986 -14.4685 -6.33114 -0.760986 19.1888
5941 1 -2.6407 -1.78248 -14.9997 -2.6407 -1.78248 -14.9997
10370 1 -1.41539 -1.88394 -15.7867 -1.41539 -1.88394 17.8705
4059 1 -16.4886 -10.1942 -2.49136 -16.4886 -10.1942 -2.49136
3427 1 -16.6567 -15.564 -12.989 -16.6567 -15.564 -12.989
1065 1 -15.9782 -16.3412 -12.0559 -15.9782 -16.3412 -12.0559
9308 1 -15.0155 -16.5971 -13.0355 18.6417 -16.5971 -13.0355
12986 1 -11.1762 -15.7415 -14.1008 -11.1762 17.9158 -14.1008
11325 1 -12.0956 -15.7351 -13.046 21.5616 -15.7351 20.6112
3110 1 -9.8007 -15.6373 -13.3523 -9.8007 -15.6373 20.3049
13367 1 -10.0844 -14.053 -12.8629 23.5729 19.6042 -12.8629
10044 1 -9.03591 -15.9108 -14.5229 -9.03591 17.7465 -14.5229
1743 1 -9.08332 -15.2013 -12.6611 -9.08332 -15.2013 -12.6611
1968 1 -7.13403 -16.7582 -12.6368 -7.13403 -16.7582 -12.6368
6769 1 -5.38127 -15.8896 -12.9373 -5.38127 -15.8896 20.7199
15663 1 -2.51963 -16.3924 -14.0898 31.1376 17.2649 19.5674
3335 1 -1.36331 -15.6709 -13.6053 -1.36331 -15.6709 -13.6053
347 1 -12.6265 -3.82762 -0.997214 -12.6265 -3.82762 -0.997214
3479 1 -15.864 -8.45746 -8.61457 -15.864 -8.45746 -8.61457
1810 1 -16.0575 -14.4224 -12.9394 -16.0575 -14.4224 -12.9394
9236 1 -15.4113 -14.8146 -14.3912 18.2459 -14.8146 -14.3912
2672 1 -14.9036 -14.2348 -12.1992 -14.9036 19.4224 -12.1992
7746 1 -12.9842 -15.1687 -12.769 -12.9842 -15.1687 20.8883
13957 1 -11.7554 -14.2925 -13.2113 21.9018 19.3647 -13.2113
6436 1 -11.1442 -13.6385 -12.6546 -11.1442 20.0187 21.0027
4124 1 -8.75107 -14.7343 -14.0336 -8.75107 18.923 -14.0336
74 1 -8.03846 -13.8755 -14.5321 -8.03846 -13.8755 -14.5321
9845 1 -7.59304 -15.165 -13.9055 26.0642 -15.165 -13.9055
9119 1 -6.64492 -16.4189 -13.5778 -6.64492 -16.4189 -13.5778
523 1 -7.15506 -14.1931 -13.8414 -7.15506 -14.1931 -13.8414
12371 1 -3.45899 -15.8374 -13.3456 -3.45899 17.8198 -13.3456
14133 1 -4.98418 -15.1156 -12.0288 -4.98418 18.5417 -12.0288
8719 1 -3.28211 -14.6918 -14.5717 -3.28211 -14.6918 -14.5717
9890 1 -2.84564 -13.5641 -12.5358 -2.84564 -13.5641 -12.5358
2126 1 -2.79992 -15.0029 -13.4664 -2.79992 -15.0029 20.1909
7898 1 -1.26854 -14.9867 -14.9985 -1.26854 18.6705 18.6588
7719 1 -1.01299 -14.4179 -13.5248 -1.01299 19.2394 20.1325
10042 1 -16.3636 -13.5011 -14.2774 17.2936 -13.5011 -14.2774
5296 1 -14.6679 -13.0049 -12.9028 -14.6679 20.6523 -12.9028
4402 1 -13.9768 -14.2024 -13.4928 -13.9768 19.4549 -13.4928
8850 1 -12.1476 -13.1067 -12.8975 21.5096 -13.1067 -12.8975
1435 1 -11.1493 -13.5446 -14.0133 -11.1493 -13.5446 -14.0133
7824 1 -9.97509 -13.2861 -11.6089 -9.97509 20.3712 22.0483
14378 1 -7.48082 -13.8015 -12.8735 -7.48082 -13.8015 20.7838
9137 1 -6.19601 -13.0138 -14.2966 -6.19601 -13.0138 -14.2966
8261 1 -4.25316 -14.9941 -13.2425 29.4041 -14.9941 -13.2425
9896 1 -2.85921 -11.8743 -14.1343 -2.85921 -11.8743 -14.1343
1665 1 -0.932627 -12.292 -12.7036 -0.932627 -12.292 -12.7036
1269 1 -0.724087 -14.4303 -12.0406 -0.724087 -14.4303 -12.0406
8922 1 -0.622291 -13.8708 -14.8128 -0.622291 -13.8708 -14.8128
2104 1 -0.215525 -14.8759 -14.021 -0.215525 -14.8759 19.6362
13535 1 -16.5112 -13.0663 -12.8345 17.146 20.5909 -12.8345
6381 1 -14.4671 -12.517 -11.711 -14.4671 21.1403 21.9463
12677 1 -13.036 -12.9337 -13.9698 20.6212 20.7235 -13.9698
397 1 -11.8994 -12.0096 -12.7521 -11.8994 -12.0096 -12.7521
2658 1 -11.7943 -11.1074 -13.6618 -11.7943 -11.1074 19.9954
10492 1 -10.6003 -12.6683 -12.9605 23.057 -12.6683 20.6967
5136 1 -9.5226 -13.3806 -13.8312 -9.5226 20.2767 -13.8312
5290 1 -8.48567 -11.9981 -13.0533 -8.48567 -11.9981 -13.0533
1456 1 -7.20649 -12.2263 -11.749 -7.20649 -12.2263 -11.749
8018 1 -6.31757 -11.8638 -13.1483 -6.31757 21.7935 -13.1483
357 1 -6.45493 -11.8844 -15.1749 -6.45493 -11.8844 -15.1749
6994 1 -4.96974 -12.5407 -13.6692 -4.96974 -12.5407 19.9881
4386 1 -4.52535 -11.7489 -12.8873 -4.52535 -11.7489 -12.8873
4680 1 -1.7565 -12.6208 -13.7794 -1.7565 21.0364 -13.7794
7279 1 -2.02423 -11.1283 -13.6416 -2.02423 -11.1283 -13.6416
9183 1 -0.92911 -11.0917 -13.3168 -0.92911 -11.0917 -13.3168
849 1 -15.3295 -10.3536 -13.0876 -15.3295 -10.3536 -13.0876
11606 1 -15.879 -10.7358 -14.0948 17.7783 -10.7358 -14.0948
11865 1 -14.9406 -11.8068 -12.6145 18.7167 -11.8068 21.0428
7931 1 -13.5832 -11.6244 -14.5533 -13.5832 22.0328 19.1039
2548 1 -14.7708 -10.6346 -14.2049 -14.7708 -10.6346 19.4524
6302 1 -12.8163 -11.1352 -13.7949 -12.8163 22.5221 -13.7949
5720 1 -10.7947 -10.152 -13.9065 -10.7947 23.5053 -13.9065
767 1 -10.0783 -11.3912 -13.1876 -10.0783 -11.3912 -13.1876
6380 1 -8.50592 -10.2919 -13.3907 -8.50592 -10.2919 -13.3907
1461 1 -8.43607 -11.4828 -14.2144 -8.43607 -11.4828 -14.2144
951 1 -7.673 -11.281 -13.3363 -7.673 -11.281 -13.3363
1895 1 -4.70143 -10.2539 -13.7568 -4.70143 -10.2539 -13.7568
5990 1 -5.78147 -11.7176 -13.9798 -5.78147 -11.7176 -13.9798
4581 1 -3.53681 -10.811 -12.9759 -3.53681 -10.811 -12.9759
9310 1 -16.3659 -7.10262 -0.189931 17.2913 -7.10262 -0.189931
3298 1 -1.70201 -10.4529 -12.486 -1.70201 -10.4529 21.1712
899 1 -13.6959 -9.05535 -11.4054 -13.6959 -9.05535 -11.4054
9443 1 -13.6436 -10.0439 -12.8742 20.0136 -10.0439 -12.8742
1444 1 -11.902 -9.75915 -13.6339 -11.902 -9.75915 -13.6339
11712 1 -9.50006 -9.81138 -14.006 24.1572 -9.81138 19.6512
3061 1 -9.56153 -9.59784 -12.2395 -9.56153 -9.59784 21.4177
1687 1 -7.31419 -9.0311 -13.1424 -7.31419 -9.0311 -13.1424
9599 1 -5.89671 -10.1347 -13.2055 -5.89671 -10.1347 -13.2055
9124 1 -6.61579 -8.61213 -14.2275 -6.61579 -8.61213 -14.2275
7070 1 -4.34653 -8.93303 -12.6358 -4.34653 -8.93303 21.0215
12340 1 -3.47958 -9.42945 -13.4907 -3.47958 -9.42945 20.1665
751 1 -2.37324 -9.54966 -15.1699 -2.37324 -9.54966 -15.1699
8415 1 -2.07522 -10.109 -13.7702 -2.07522 -10.109 -13.7702
15275 1 -15.2216 -7.49131 -14.068 18.4357 -7.49131 19.5892
5627 1 -14.2628 -7.45333 -12.23 -14.2628 26.2039 -12.23
12159 1 -13.7188 -6.81492 -13.3883 -13.7188 -6.81492 20.269
10003 1 -10.3856 -7.29143 -13.334 23.2717 -7.29143 -13.334
12045 1 -9.51254 -8.77533 -14.4736 24.1447 -8.77533 19.1837
16127 1 -7.32761 -8.1421 -12.3718 26.3296 -8.1421 21.2854
503 1 -6.73206 -8.00292 -15.1222 -6.73206 -8.00292 -15.1222
3004 1 -5.59974 -7.70689 -13.5874 -5.59974 -7.70689 20.0699
5563 1 -4.16288 -7.3696 -13.5249 -4.16288 -7.3696 -13.5249
10070 1 -3.74055 -6.53289 -13.1704 -3.74055 -6.53289 -13.1704
13477 1 -1.7253 -7.77646 -13.2613 -1.7253 25.8808 -13.2613
11182 1 -1.39581 -7.62229 -14.4444 -1.39581 -7.62229 19.2128
13636 1 -0.926503 -7.49873 -12.2978 -0.926503 -7.49873 -12.2978
8500 1 -15.8801 -6.64365 -13.8152 17.7772 -6.64365 -13.8152
8057 1 -14.0252 -6.67529 -15.1628 -14.0252 -6.67529 -15.1628
9927 1 -14.9337 -6.1223 -12.8912 18.7235 -6.1223 -12.8912
5279 1 -13.6258 -5.28571 -13.9931 -13.6258 -5.28571 -13.9931
10661 1 -13.3934 -5.41216 -12.1442 20.2639 -5.41216 21.5131
14615 1 -12.6133 -4.80706 -12.0173 21.044 -4.80706 21.64
8524 1 -12.8128 -6.17722 -13.4961 20.8444 -6.17722 -13.4961
1841 1 -10.6454 -6.19376 -12.7495 -10.6454 -6.19376 -12.7495
3523 1 -9.3103 -6.33938 -12.2281 -9.3103 -6.33938 21.4292
205 1 -7.65312 -6.89882 -13.9115 -7.65312 -6.89882 -13.9115
4172 1 -7.03753 -5.91453 -13.6291 -7.03753 27.7427 -13.6291
5052 1 -6.03944 -4.65697 -13.1855 -6.03944 -4.65697 -13.1855
7366 1 -5.51616 -6.03483 -14.0321 -5.51616 -6.03483 19.6252
10764 1 -2.51061 -5.94999 -12.8092 31.1466 -5.94999 20.848
1702 1 -1.30667 -5.85025 -13.334 -1.30667 -5.85025 -13.334
8056 1 -7.65672 -3.34049 -16.3938 -7.65672 -3.34049 17.2635
3974 1 -16.0826 -5.34579 -13.9204 -16.0826 -5.34579 19.7369
4176 1 -13.9198 -3.42656 -14.0637 -13.9198 -3.42656 -14.0637
870 1 -11.7004 -5.90101 -12.4047 -11.7004 -5.90101 -12.4047
13798 1 -10.5233 -4.96846 -14.3413 23.1339 28.6888 -14.3413
8179 1 -10.3266 -5.16886 -13.0156 -10.3266 -5.16886 20.6416
2146 1 -9.48759 -4.12539 -12.1581 -9.48759 -4.12539 21.4991
570 1 -6.92471 -5.25383 -12.3439 -6.92471 -5.25383 -12.3439
22 1 -8.185 -4.46756 -13.3963 -8.185 -4.46756 -13.3963
324 1 -5.93452 -3.41579 -13.472 -5.93452 -3.41579 -13.472
1408 1 -4.63104 -5.2343 -13.8714 -4.63104 -5.2343 -13.8714
1590 1 -4.80771 -4.12471 -13.6171 -4.80771 -4.12471 -13.6171
1076 1 -3.95421 -4.05694 -12.8238 -3.95421 -4.05694 -12.8238
1625 1 -2.92763 -5.119 -15.0796 -2.92763 -5.119 -15.0796
9950 1 -2.12579 -4.93926 -14.1066 -2.12579 -4.93926 -14.1066
287 1 -1.28076 -4.3182 -13.5988 -1.28076 29.3391 -13.5988
12615 1 -0.532371 -5.2211 -14.0968 -0.532371 28.4362 -14.0968
4527 1 -16.4115 -4.49347 -12.75 -16.4115 -4.49347 -12.75
14908 1 -15.9663 -4.04995 -14.2317 17.691 -4.04995 19.4256
13163 1 -15.1814 -3.66015 -12.6605 18.4759 -3.66015 -12.6605
7056 1 -14.0224 -4.62534 -13.0045 -14.0224 -4.62534 20.6527
4452 1 -14.1571 -3.51074 -12.5991 -14.1571 -3.51074 -12.5991
3763 1 -12.7121 -3.093 -13.4325 -12.7121 -3.093 20.2248
9678 1 -11.4987 -3.82969 -14.402 22.1585 -3.82969 -14.402
11112 1 -13.1272 -3.97721 -14.9301 20.5301 -3.97721 18.7272
14240 1 -11.8322 -3.57507 -12.4395 -11.8322 -3.57507 -12.4395
8616 1 -9.09638 -2.86968 -13.2903 -9.09638 -2.86968 -13.2903
12555 1 -11.586 -4.44316 -13.0671 22.0712 -4.44316 -13.0671
7732 1 -7.56661 -3.4847 -12.3593 -7.56661 -3.4847 21.2979
7275 1 -4.06689 -3.35586 -14.752 -4.06689 30.3014 18.9053
16068 1 -4.78139 -3.33501 -12.6858 28.8759 -3.33501 -12.6858
6725 1 -3.13295 -3.17374 -13.3752 -3.13295 -3.17374 20.282
7424 1 -1.76788 -2.44943 -13.2309 -1.76788 31.2078 20.4264
10824 1 -2.5678 -4.34391 -12.6094 -2.5678 -4.34391 21.0479
13161 1 -0.445251 -3.54664 -13.3442 -0.445251 -3.54664 -13.3442
7780 1 -5.74011 -7.73732 -0.429338 -5.74011 -7.73732 -0.429338
13423 1 -15.9882 -2.5974 -14.1558 17.669 -2.5974 -14.1558
4973 1 -14.4077 -1.5712 -14.2132 -14.4077 -1.5712 -14.2132
1894 1 -11.743 -2.73622 -14.1577 -11.743 -2.73622 -14.1577
8224 1 -12.0728 -2.33395 -12.6626 21.5844 -35.9912 -12.6626
15602 1 -10.6791 -3.2042 -13.805 22.9782 -3.2042 19.8522
11563 1 -7.11079 -2.04569 -13.4033 -7.11079 -2.04569 20.254
4691 1 -4.78419 -2.5323 -14.0001 -4.78419 -2.5323 -14.0001
7099 1 -7.04802 -0.739434 -13.6167 -7.04802 -0.739434 20.0406
5575 1 -3.66976 -2.05857 -14.0341 -3.66976 -2.05857 -14.0341
7075 1 -2.32531 -1.63809 -13.7854 -2.32531 -1.63809 19.8719
9111 1 -0.798331 -1.32922 -13.5491 -0.798331 -1.32922 -13.5491
11675 1 -16.6558 -1.38736 -5.51055 17.0015 -1.38736 28.1467
5094 1 -14.7066 -0.423087 -13.4185 -14.7066 -0.423087 -13.4185
12427 1 -15.5292 -1.32834 -13.4711 18.1281 -1.32834 -13.4711
7670 1 -14.7374 -2.30164 -12.829 -14.7374 -2.30164 20.8283