ITEM: TIMESTEP
6500
ITEM: NUMBER OF ATOMS
16384
ITEM: BOX BOUNDS pp pp pp
-1.6828627036276380e+01 1.6828627036276380e+01
-1.6828627036276380e+01 1.6828627036276380e+01
-1.6828627036276380e+01 1.6828627036276380e+01
ITEM: ATOMS id type x y z xu yu zu
5975 1 -15.3334 -15.2447 -16.5449 -15.3334 18.4126 -16.5449
6926 1 -16.7025 -15.5548 -15.5834 -16.7025 -15.5548 18.0739
4470 1 -7.94907 -0.765486 -16.5179 -7.94907 -0.765486 -16.5179
2624 1 -12.4882 -15.3215 -16.2778 -12.4882 -15.3215 17.3795
3795 1 -7.88353 -1.33979 -0.922384 -7.88353 -1.33979 -0.922384
5367 1 -10.0102 -16.0192 -15.2823 -10.0102 17.638 -15.2823
5342 1 -8.02901 -15.9265 -16.1464 -8.02901 17.7307 -16.1464
6185 1 -6.20298 -16.1003 -14.9423 -6.20298 17.5569 18.715
7130 1 -5.36285 -16.2811 -16.3582 -5.36285 17.3761 17.299
3293 1 -4.19296 -16.3138 -16.6649 -4.19296 -16.3138 16.9924
14054 1 -3.97864 -16.5819 -15.1589 -3.97864 17.0753 -15.1589
8260 1 -3.2368 -15.6914 -16.114 -3.2368 -15.6914 -16.114
3423 1 -1.60561 -15.4805 -16.1339 -1.60561 -15.4805 17.5234
5749 1 -3.51498 -16.7945 -7.55701 -3.51498 16.8627 -7.55701
469 1 -14.3653 -15.7001 -15.4079 -14.3653 -15.7001 -15.4079
44 1 -15.0181 -14.4159 -15.8513 -15.0181 -14.4159 17.8059
14116 1 -7.45294 -6.66021 -16.6185 26.2043 26.997 -16.6185
8100 1 -13.3711 -14.9875 -15.3627 -47.0283 18.6698 18.2946
9407 1 -13.0123 -14.5939 -16.839 20.645 -14.5939 -16.839
15615 1 -11.9385 -14.4283 -16.3408 -11.9385 19.2289 17.3164
13934 1 -10.593 -16.3433 -16.0485 -10.593 17.3139 -16.0485
7734 1 -8.83346 -14.2286 -16.3257 -8.83346 19.4286 17.3315
8662 1 -9.8246 -15.1232 -16.7842 23.8327 -15.1232 -16.7842
472 1 -7.62455 -14.7375 -15.8831 -7.62455 -14.7375 -15.8831
2561 1 -5.75134 -14.872 -16.1707 -5.75134 -14.872 17.4866
6416 1 -4.09857 -15.324 -15.203 -4.09857 18.3333 18.4542
15279 1 -3.06478 -13.9601 -16.7298 -3.06478 19.6971 16.9274
4947 1 -2.58816 -16.6323 -16.1592 -2.58816 17.0249 -16.1592
9432 1 -1.10208 -14.4073 -15.9748 -1.10208 -14.4073 -15.9748
10488 1 -16.7957 -12.2637 -16.6281 16.8615 21.3935 17.0291
3581 1 -13.0111 -13.8315 -15.6313 -13.0111 -13.8315 18.0259
1812 1 -11.3934 -13.5027 -15.3858 -11.3934 -13.5027 -15.3858
2488 1 -8.92784 -13.7639 -14.5207 -8.92784 -13.7639 19.1366
3722 1 -9.77974 -13.1888 -15.851 -9.77974 -13.1888 17.8062
1535 1 -8.61769 -13.2915 -15.7134 -8.61769 -13.2915 17.9438
2471 1 -7.81717 -13.6838 -16.8031 -7.81717 -13.6838 16.8542
1723 1 -6.57289 -13.4232 -15.352 -6.57289 -13.4232 -15.352
4599 1 -6.45808 -13.878 -16.7902 -6.45808 19.7793 -16.7902
1925 1 -5.03194 -14.3305 -15.5766 -5.03194 -14.3305 -15.5766
4689 1 -5.33922 -13.0288 -15.8411 -5.33922 -13.0288 -15.8411
8719 1 -1.68751 -13.3476 -16.7435 -1.68751 -13.3476 -16.7435
9859 1 -3.53732 -12.9841 -16.4124 -3.53732 -12.9841 -16.4124
9099 1 -0.792777 -12.1675 -16.2228 -0.792777 -12.1675 -16.2228
6493 1 -0.147345 -13.5406 -15.6467 -0.147345 20.1166 18.0106
4034 1 -12.0603 -7.66849 -16.606 -12.0603 -7.66849 17.0513
1978 1 -15.8511 -12.4269 -15.8903 -15.8511 -12.4269 -15.8903
3649 1 -14.7745 -12.3917 -16.213 -14.7745 -12.3917 17.4443
4219 1 -13.8071 -12.7199 -15.2827 -13.8071 20.9374 -15.2827
7042 1 -12.5782 -12.7167 -16.7014 -12.5782 20.9406 16.9558
11190 1 -11.4086 -12.1562 -15.9027 -11.4086 -12.1562 17.7545
6529 1 -8.24013 -12.2215 -16.2698 -8.24013 -12.2215 17.3875
7530 1 -10.3198 -12.2226 -16.1658 -10.3198 -12.2226 17.4914
4817 1 -6.94223 -11.6432 -15.3214 -6.94223 22.014 -15.3214
4687 1 -6.92206 -12.6642 -16.4704 -6.92206 20.993 -16.4704
6275 1 -4.8013 -11.7687 -16.0761 -4.8013 -11.7687 -16.0761
6944 1 -2.24123 -12.1671 -15.5155 -2.24123 21.4901 18.1417
12058 1 -15.8141 -10.5726 -16.5649 17.8432 -10.5726 17.0923
9190 1 -14.3752 -10.0282 -15.6015 19.2821 -10.0282 18.0557
179 1 -13.4416 -11.6286 -15.8193 -13.4416 -11.6286 -15.8193
2341 1 -11.6613 -10.9017 -15.9904 -11.6613 -10.9017 17.6668
15399 1 -12.697 -11.2577 -16.4273 20.9602 22.3995 17.23
6523 1 -10.3008 -9.5905 -16.0327 -10.3008 24.0668 17.6245
12064 1 -10.663 -11.3804 -16.7767 22.9942 -11.3804 16.8805
15431 1 -13.596 -0.0427156 -3.45234 20.0612 -0.0427156 -3.45234
9790 1 -7.69162 -10.6793 -16.2224 -7.69162 -10.6793 -16.2224
10749 1 -6.48269 -9.40544 -16.1669 -6.48269 -9.40544 -16.1669
8083 1 -5.76607 -10.9164 -15.6518 -5.76607 -10.9164 18.0055
1524 1 -3.03324 -10.117 -15.8723 -3.03324 -10.117 -15.8723
14517 1 -13.3162 -1.63988 -0.651596 20.3411 -1.63988 -0.651596
9890 1 -2.55188 -11.2408 -15.8819 -2.55188 -11.2408 -15.8819
7037 1 -1.68224 -11.1471 -16.4675 -1.68224 22.5101 17.1898
148 1 -0.481966 -11.0678 -15.7778 -0.481966 -11.0678 -15.7778
749 1 -15.5789 -9.36234 -16.0213 -15.5789 -9.36234 -16.0213
2674 1 -11.0129 -16.3414 -1.78143 -11.0129 -16.3414 31.8758
12045 1 -14.7111 -9.16053 -16.4632 18.9462 -9.16053 17.194
8215 1 -13.3336 -10.2604 -15.3744 -13.3336 23.3968 18.2829
15897 1 -0.188459 -12.66 -6.35303 -0.188459 20.9973 -6.35303
1175 1 -12.2596 -9.68707 -16.1047 -12.2596 -9.68707 -16.1047
808 1 -11.1351 -9.45357 -15.2505 -11.1351 -9.45357 -15.2505
12503 1 -8.64662 -10.0548 -15.3856 25.0106 23.6024 -15.3856
2214 1 -7.83372 -9.36619 -16.3329 -7.83372 -9.36619 17.3243
7639 1 -5.85341 -8.59307 -15.3712 -5.85341 -8.59307 18.286
5027 1 -4.87832 -10.5412 -16.5667 -4.87832 23.1161 -16.5667
6376 1 -5.11685 -16.6509 -13.9173 -5.11685 17.0063 19.7399
11078 1 -1.66561 -8.84125 -15.963 -1.66561 -8.84125 17.6943
1256 1 -0.524134 -9.97515 -16.6476 -0.524134 -9.97515 -16.6476
15143 1 -1.02387 -5.25109 -15.828 -1.02387 -5.25109 17.8293
5025 1 -15.3367 -8.1662 -15.8683 -15.3367 -8.1662 -15.8683
2372 1 -13.9337 -16.7456 -16.1786 -13.9337 -16.7456 17.4787
13398 1 -12.4406 -0.126571 -6.24463 21.2166 -0.126571 -6.24463
12522 1 -10.6133 -7.6291 -15.5749 -10.6133 -7.6291 -15.5749
16305 1 -10.139 -6.40497 -16.1398 -10.139 -6.40497 17.5175
5523 1 -12.0838 -0.410164 -4.36607 -12.0838 -0.410164 -4.36607
1639 1 -9.29866 -7.42449 -16.0813 -9.29866 -7.42449 -16.0813
16145 1 -8.79608 -15.6819 -0.551605 24.8612 17.9754 33.1056
3889 1 -4.69062 -7.24911 -14.9907 -4.69062 -7.24911 -14.9907
8503 1 -5.89967 -7.62015 -15.9835 -5.89967 -7.62015 -15.9835
13287 1 -4.22331 -8.0381 -16.7235 -4.22331 -8.0381 -16.7235
11381 1 -3.05487 -7.26754 -16.3522 30.6024 -7.26754 17.305
11149 1 -3.17733 -8.64474 -16.367 -3.17733 -8.64474 17.2903
1152 1 -1.90305 -7.86046 -16.3069 -1.90305 -7.86046 17.3503
6772 1 -16.2464 -6.95584 -16.3924 -16.2464 -6.95584 17.2649
6319 1 -14.6928 -6.45418 -15.4632 -14.6928 27.2031 18.1941
58 1 -16.0862 -5.7 -15.3663 -16.0862 -5.7 -15.3663
2010 1 -12.2012 -6.27635 -15.5354 -12.2012 -6.27635 -15.5354
8616 1 -11.1002 -5.51731 -16.072 -11.1002 -5.51731 -16.072
12190 1 -8.12827 -5.90529 -16.1723 -8.12827 -5.90529 17.4849
4715 1 -7.19801 -7.27377 -15.8619 -7.19801 26.3835 -15.8619
5503 1 -11.0776 -10.1374 -16.6126 -11.0776 23.5198 -16.6126
14616 1 -5.39672 -6.58755 -16.5078 -5.39672 -6.58755 17.1495
1481 1 -4.35821 -6.58244 -16.1539 -4.35821 -6.58244 -16.1539
4294 1 -5.44726 -0.430619 -9.36851 -5.44726 -0.430619 -9.36851
9002 1 -2.72968 -6.98534 -15.0602 -2.72968 -6.98534 -15.0602
2250 1 -1.82028 -6.23989 -15.8427 -1.82028 -6.23989 17.8146
1884 1 -0.796873 -7.13572 -15.8686 -0.796873 -7.13572 -15.8686
1965 1 -16.2048 -5.65139 -16.7058 -16.2048 -5.65139 -16.7058
1953 1 -14.5077 -4.08546 -16.6067 -14.5077 -4.08546 -16.6067
6501 1 -13.4859 -4.56686 -15.9186 -13.4859 -4.56686 17.7387
8921 1 -12.4075 -4.9827 -16.0399 -12.4075 -4.9827 -16.0399
3070 1 -11.4752 -4.5771 -15.2986 -11.4752 -4.5771 18.3587
11507 1 -9.61546 -5.48507 -16.0897 24.0418 -5.48507 17.5676
11517 1 -10.5657 -4.21326 -16.7349 23.0916 -4.21326 16.9224
12218 1 -8.13992 -4.55779 -15.7363 -8.13992 -4.55779 17.921
5740 1 -9.89769 -3.70186 -15.2427 -9.89769 -3.70186 -15.2427
8152 1 -13.888 -16.6557 -8.21851 -13.888 17.0015 25.4387
5320 1 -7.036 -5.81335 -15.4837 -7.036 -5.81335 -15.4837
8203 1 -6.26866 -4.78852 -16.0513 -6.26866 -4.78852 17.606
3832 1 -4.01491 -4.51361 -16.1272 -4.01491 -4.51361 17.5301
6214 1 -5.37755 -5.38196 -16.5522 -5.37755 -5.38196 17.1051
10574 1 -2.80879 -4.74831 -15.0563 -2.80879 -4.74831 18.601
15594 1 -15.0077 -0.607148 -0.398291 18.6495 33.0501 -0.398291
1169 1 -2.3264 -4.81951 -15.9946 -2.3264 -4.81951 -15.9946
1421 1 -16.2695 -16.5514 -16.5091 -16.2695 -16.5514 -16.5091
10490 1 -16.1974 -4.3734 -15.6684 17.4599 -4.3734 17.9889
8760 1 -15.7151 -3.08342 -16.5455 17.9421 -3.08342 -16.5455
15893 1 -12.7373 -3.14694 -15.2756 -12.7373 -3.14694 18.3817
4724 1 -11.8191 -3.77394 -16.4024 -11.8191 -3.77394 -16.4024
13690 1 -11.0581 -2.62175 -16.7437 22.5991 -2.62175 -16.7437
2649 1 -9.44199 -3.06253 -16.3558 -9.44199 -3.06253 17.3014
6467 1 -11.1385 -15.9748 -7.16118 -11.1385 17.6825 -7.16118
4321 1 -7.04021 -3.96534 -16.2689 -7.04021 -3.96534 -16.2689
10 1 -6.22064 -3.08509 -16.3371 -6.22064 -3.08509 -16.3371
1690 1 -4.88783 -3.82804 -16.45 -4.88783 -3.82804 -16.45
4522 1 -4.1983 -3.01294 -16.0311 -4.1983 -3.01294 -16.0311
160 1 -2.9564 -3.78513 -16.5625 -2.9564 -3.78513 -16.5625
2049 1 -1.92276 -3.13589 -15.8421 -1.92276 -3.13589 17.8152
578 1 -2.85361 -16.6504 -5.50739 -2.85361 -16.6504 -5.50739
13191 1 -1.20189 -2.62973 -14.6023 -1.20189 -2.62973 19.055
1135 1 -1.08812 -4.1074 -15.5465 -1.08812 -4.1074 -15.5465
1014 1 -0.366893 -4.43501 -16.7888 -0.366893 -4.43501 -16.7888
4973 1 -15.8552 -1.74835 -16.2993 -15.8552 -1.74835 -16.2993
10751 1 -13.5288 -2.55184 -16.0432 20.1284 -2.55184 17.6141
5094 1 -15.2377 -2.471 -15.4522 -15.2377 -2.471 -15.4522
13282 1 -10.6208 -1.68254 -15.3602 23.0364 -1.68254 -15.3602
2927 1 -8.85427 -1.65179 -16.7356 -8.85427 -35.309 16.9216
4597 1 -8.60277 -2.63923 -15.1249 -8.60277 -2.63923 -15.1249
6509 1 -7.94318 -2.01685 -15.9954 -7.94318 -2.01685 17.6619
2505 1 -6.51908 -1.77868 -16.0415 -6.51908 -1.77868 17.6157
5308 1 -5.03397 -1.61587 -15.7849 -5.03397 -1.61587 -15.7849
573 1 -2.98948 -2.69534 -15.3549 -2.98948 -2.69534 -15.3549
6646 1 -3.61177 -1.83464 -16.2323 -3.61177 -1.83464 17.425
7098 1 -0.41579 -6.60247 -2.18706 -0.41579 -6.60247 -2.18706
11530 1 -0.500111 -2.57447 -16.1576 -0.500111 -2.57447 17.4997
14925 1 -16.504 -0.488642 -16.0511 17.1533 -0.488642 17.6062
8128 1 -14.8296 -0.804237 -16.3639 -14.8296 -0.804237 17.2933
356 1 -13.3394 -0.340039 -16.0741 -13.3394 -0.340039 -16.0741
13904 1 -12.4083 -1.0114 -15.4752 -12.4083 -1.0114 -15.4752
4226 1 -8.95904 -16.3178 -2.08984 -8.95904 17.3395 -2.08984
5623 1 -11.7098 -0.312281 -16.6373 -11.7098 -0.312281 -16.6373
8124 1 -13.6263 -0.0665651 -5.69465 -13.6263 -0.0665651 27.9626
6485 1 -9.64182 -0.516848 -15.1794 -9.64182 33.1404 18.4778
12420 1 -7.01224 -1.11244 -16.7877 26.645 -1.11244 -16.7877
2031 1 -0.160908 -9.32421 -1.59246 -0.160908 -9.32421 -1.59246
11346 1 -9.60889 -0.0854052 -9.78804 24.0484 -0.0854052 -9.78804
5383 1 -3.71357 -0.322314 -16.1855 -3.71357 -0.322314 -16.1855
14489 1 -0.242261 -9.58949 -13.2929 -0.242261 24.0678 20.3643
7424 1 -2.84986 -1.28249 -15.4291 -2.84986 32.3748 18.2282
5941 1 -0.66646 -0.13578 -15.8517 -0.66646 -0.13578 -15.8517
7984 1 -12.2906 -2.69227 -16.5141 -12.2906 30.965 17.1432
15196 1 -15.6666 -16.2014 -15.0128 17.9906 17.4559 18.6444
15121 1 -14.5834 -16.3474 -13.3917 19.0739 17.3098 20.2655
8957 1 -0.0823582 -15.2098 -16.5925 -0.0823582 -15.2098 -16.5925
15107 1 -13.6472 -15.7657 -14.2094 20.0101 -15.7657 19.4479
8955 1 -12.2119 -16.3565 -14.1803 21.4454 17.3007 -14.1803
74 1 -11.1717 -15.7442 -14.4597 -11.1717 -15.7442 -14.4597
6369 1 -8.95357 -16.0036 -15.3635 -8.95357 17.6536 18.2938
934 1 -7.52291 -16.0162 -15.2062 -7.52291 -16.0162 -15.2062
1743 1 -7.63048 -16.4158 -14.1393 -7.63048 -16.4158 -14.1393
11648 1 -5.51991 -15.5247 -13.6307 -5.51991 -15.5247 20.0265
7538 1 -5.17232 -15.6798 -15.2624 -5.17232 17.9774 18.3948
3385 1 -16.5882 -7.44745 -1.31663 -16.5882 -7.44745 -1.31663
5700 1 -4.2372 -14.9568 -14.015 -4.2372 18.7005 -14.015
4572 1 -3.41284 -15.5851 -12.7108 -3.41284 18.0721 -12.7108
8669 1 -2.4963 -15.9062 -14.2906 -2.4963 -15.9062 -14.2906
6363 1 -1.27265 -16.0506 -14.8296 -1.27265 17.6066 18.8276
14161 1 -2.49026 -12.4546 -16.6984 -2.49026 21.2027 -16.6984
2354 1 -0.322081 -16.5816 -15.6755 -0.322081 -16.5816 17.9818
1924 1 -15.0092 -14.803 -14.5627 -15.0092 -14.803 -14.5627
8046 1 -11.9751 -14.9917 -14.7896 -11.9751 18.6655 18.8677
7456 1 -9.54481 -14.6755 -15.6324 -9.54481 18.9817 -15.6324
4514 1 -8.33378 -14.8824 -14.8886 -8.33378 18.7749 -14.8886
8868 1 -6.73188 -14.9477 -15.45 -6.73188 -14.9477 -15.45
16382 1 -5.61628 -14.7954 -14.4395 -5.61628 18.8619 -14.4395
2126 1 -2.58696 -14.8533 -14.8893 -2.58696 -14.8533 18.768
11646 1 -0.31926 -14.6332 -14.8153 -0.31926 -14.6332 18.842
9630 1 -1.3641 -14.4556 -14.3624 -1.3641 -14.4556 -14.3624
15396 1 -16.1316 -14.6084 -14.714 17.5256 19.0489 18.9433
1431 1 -16.3538 -12.8152 -14.9609 -16.3538 -12.8152 -14.9609
6879 1 -15.8173 -13.0086 -13.9769 -15.8173 20.6487 19.6803
12827 1 -14.8897 -13.4961 -15.0064 -14.8897 20.1612 -15.0064
14882 1 -12.6389 -13.3223 -14.5985 21.0183 20.335 19.0587
1251 1 -10.4234 -14.8377 -14.6752 -10.4234 18.8195 -14.6752
9435 1 -9.27148 -11.8435 -15.4574 24.3858 -11.8435 -15.4574
3127 1 -7.27875 -14.088 -14.7797 -7.27875 -14.088 18.8776
4147 1 -6.89663 -12.8205 -14.2318 -6.89663 20.8367 -14.2318
8173 1 -4.26929 -12.2597 -14.3566 -4.26929 21.3976 19.3007
8402 1 -5.30013 -13.7801 -14.2477 -5.30013 -13.7801 -14.2477
357 1 -3.97502 -13.4653 -15.2195 -3.97502 -13.4653 -15.2195
9433 1 -3.56248 -13.7252 -14.2229 -3.56248 -13.7252 -14.2229
8540 1 -2.21783 -13.5567 -15.2187 -2.21783 -13.5567 -15.2187
9896 1 -1.11916 -12.8341 -14.9015 -1.11916 -12.8341 -14.9015
2184 1 -1.86575 -0.370413 -1.23318 -1.86575 -0.370413 -1.23318
11606 1 -15.3945 -11.2221 -13.9785 18.2627 -11.2221 -13.9785
849 1 -14.8907 -12.5919 -14.5603 -14.8907 -12.5919 -14.5603
8786 1 -14.1326 -11.377 -14.31 19.5247 -11.377 -14.31
4665 1 -12.3542 -12.1358 -15.4458 -12.3542 21.5214 -15.4458
5720 1 -12.3261 -11.6462 -14.1025 -12.3261 22.0111 -14.1025
13813 1 -10.6697 -12.7913 -15.016 22.9876 20.8659 -15.016
5923 1 -10.406 -11.3799 -14.8473 -10.406 -11.3799 -14.8473
11712 1 -7.88173 -12.6817 -14.768 25.7755 -12.6817 18.8892
733 1 -7.95154 -11.9162 -13.5723 -7.95154 -11.9162 -13.5723
1537 1 -5.54599 -10.5283 -14.0284 -5.54599 -10.5283 -14.0284
2426 1 -5.9072 -12.1368 -15.0921 -5.9072 -12.1368 18.5652
7644 1 -4.37094 -11.0824 -15.4465 -4.37094 22.5748 18.2108
8255 1 -3.82175 -12.0488 -15.6111 -3.82175 -12.0488 -15.6111
12009 1 -3.07218 -12.7925 -14.9941 -3.07218 -12.7925 18.6632
3683 1 -2.64746 -11.524 -14.5735 -2.64746 -11.524 19.0837
7833 1 -10.8935 -15.5628 -16.7245 -10.8935 18.0945 16.9327
13271 1 -15.5185 -11.2815 -15.4949 18.1388 22.3757 -15.4949
11856 1 -14.0707 -10.3201 -13.7399 19.5866 -10.3201 19.9173
14478 1 -12.8166 -10.7616 -14.643 20.8407 22.8957 -14.643
4235 1 -11.4649 -11.4724 -15.0358 -11.4649 22.1849 18.6215
1536 1 -11.2254 -10.4499 -14.4895 -11.2254 -10.4499 -14.4895
503 1 -9.48652 -10.8004 -15.4151 -9.48652 -10.8004 -15.4151
1802 1 -9.02816 -11.2919 -14.0766 -9.02816 -11.2919 -14.0766
597 1 -8.32235 -11.2835 -14.9382 -41.9796 -11.2835 18.7191
1305 1 -7.04574 -10.5061 -14.7119 -7.04574 -10.5061 -14.7119
5290 1 -6.42364 -9.44046 -14.6376 -6.42364 -9.44046 -14.6376
5990 1 -3.42609 -10.6091 -14.7116 -3.42609 -10.6091 -14.7116
995 1 -2.16214 -10.2164 -15.2904 -2.16214 -10.2164 -15.2904
10961 1 -1.05023 -10.3441 -14.5723 -1.05023 -10.3441 19.0849
9864 1 -13.7133 -6.24417 -16.0076 -13.7133 -6.24417 -16.0076
1375 1 -15.3776 -9.68156 -14.7621 -15.3776 -9.68156 -14.7621
15275 1 -14.0769 -8.83429 -15.5282 19.5804 -8.83429 18.1291
6982 1 -13.721 -9.14917 -13.7684 -13.721 -9.14917 19.8889
5986 1 -12.7512 -8.88826 -15.4105 -12.7512 -8.88826 -15.4105
2261 1 -10.1125 -9.84398 -14.9074 -10.1125 -9.84398 18.7498
1438 1 -9.43684 -8.64372 -15.6975 -9.43684 -8.64372 -15.6975
11538 1 -8.70441 -8.84155 -14.3537 24.9528 -8.84155 19.3035
1760 1 -7.78826 -9.64823 -14.9188 -7.78826 -9.64823 -14.9188
10054 1 -4.66309 -10.0158 -14.9496 -4.66309 -10.0158 -14.9496
12016 1 -4.05291 -9.27819 -14.0983 -4.05291 -9.27819 19.5589
7430 1 -2.5116 -8.13617 -15.1592 -2.5116 -8.13617 18.498
4796 1 -1.35904 -8.81061 -13.9976 -1.35904 -8.81061 -13.9976
8415 1 -0.783486 -8.49137 -15.2945 -0.783486 -8.49137 -15.2945
6156 1 -5.0871 -11.4058 -0.0773118 -5.0871 22.2514 -0.0773118
11112 1 -14.8072 -8.47123 -14.25 18.8501 -8.47123 19.4073
3051 1 -13.4651 -7.57929 -15.7642 -13.4651 -7.57929 17.8931
14935 1 -13.4081 -8.08815 -14.7542 -13.4081 -8.08815 18.9031
6334 1 -12.3836 -7.39547 -15.321 -12.3836 -7.39547 18.3363
2611 1 -10.7843 -7.07607 -14.4581 -10.7843 -7.07607 19.1991
480 1 -10.7212 -8.4349 -14.3185 -10.7212 -8.4349 -14.3185
4995 1 -8.20363 -8.05418 -15.7504 -8.20363 -8.05418 -15.7504
3405 1 -9.54421 -7.99883 -14.2371 -9.54421 -7.99883 19.4202
1843 1 -7.59617 -7.99308 -14.7845 -7.59617 -7.99308 -14.7845
11584 1 -6.59862 -7.86447 -15.0335 -6.59862 -7.86447 18.6238
10259 1 -4.16012 -7.34734 -14.0062 -4.16012 -7.34734 -14.0062
1895 1 -4.33045 -8.29805 -15.5243 -4.33045 -8.29805 -15.5243
3004 1 -2.14562 -8.02298 -14.0208 -2.14562 -8.02298 19.6365
2324 1 -1.46325 -7.23065 -15.0667 -1.46325 -7.23065 18.5906
7070 1 -0.431905 -8.27419 -13.7954 -0.431905 -8.27419 19.8618
14456 1 -16.7979 -13.3038 -1.81271 16.8594 20.3535 -1.81271
2623 1 -15.8354 -7.46388 -14.7961 -15.8354 -7.46388 18.8612
15950 1 -16.4943 -5.97353 -13.9223 17.163 -5.97353 19.7349
12159 1 -13.2847 -6.84548 -14.3035 -13.2847 -6.84548 19.3537
14402 1 -10.6688 -6.39698 -15.2493 22.9884 -6.39698 18.408
741 1 -9.57985 -6.85515 -14.7743 -9.57985 -6.85515 -14.7743
2736 1 -8.27364 -6.61153 -15.0397 -8.27364 -6.61153 18.6175
4172 1 -6.8328 -6.57209 -14.733 -6.8328 27.0852 -14.733
2185 1 -5.54169 -6.24527 -14.9847 -5.54169 -6.24527 18.6725
5386 1 -3.65381 -5.63899 -15.8841 -3.65381 28.0183 -15.8841
8505 1 -3.63486 -6.53588 -14.7227 -3.63486 -6.53588 -14.7227
1625 1 -2.63202 -6.72095 -13.6532 -2.63202 -6.72095 -13.6532
1798 1 -1.20833 -5.44829 -14.5087 -1.20833 -5.44829 -14.5087
11717 1 -0.562524 -6.41738 -15.0499 -0.562524 -6.41738 -15.0499
8584 1 -8.96411 -16.5205 -7.7293 -8.96411 -16.5205 -7.7293
10069 1 -14.9025 -5.37497 -15.1939 18.7548 -5.37497 -15.1939
3029 1 -13.821 -5.70267 -14.986 -13.821 -5.70267 18.6713
4789 1 -13.7091 -4.27562 -14.6365 -13.7091 -4.27562 -14.6365
8524 1 -11.3487 -5.04809 -14.1687 22.3085 -5.04809 -14.1687
914 1 -10.4033 -5.14928 -14.5935 -10.4033 -5.14928 -14.5935
2873 1 -9.30374 -5.31423 -15.0214 -9.30374 -5.31423 18.6358
8056 1 -8.11321 -5.68122 -14.1744 -8.11321 -5.68122 19.4828
621 1 -7.34979 -4.32249 -14.709 -7.34979 -4.32249 -14.709
3130 1 -5.52229 -4.93607 -15.1727 -5.52229 -4.93607 18.4845
2117 1 -3.42767 -5.47271 -14.2655 -3.42767 -5.47271 -14.2655
11978 1 -1.9874 -4.45486 -14.5046 -1.9874 -4.45486 19.1526
15509 1 -2.09355 -5.36929 -13.792 -2.09355 -5.36929 19.8652
13987 1 -16.4156 -2.72324 -15.7843 17.2417 -2.72324 -15.7843
9678 1 -14.7272 -3.42795 -15.6885 18.93 -3.42795 -15.6885
3468 1 -15.9342 -3.72863 -14.7377 -15.9342 -3.72863 18.9196
9133 1 -12.3623 -4.11608 -14.801 21.295 -4.11608 -14.801
5178 1 -11.7891 -3.46866 -15.4339 -11.7891 -3.46866 -15.4339
22 1 -9.24045 -2.61756 -14.2021 -9.24045 -2.61756 -14.2021
10958 1 -6.62416 -3.4796 -15.1658 -6.62416 -3.4796 18.4914
1589 1 -8.57242 -3.78578 -15.0642 -8.57242 -3.78578 -15.0642
5248 1 -5.30606 -3.08802 -14.8937 -5.30606 -3.08802 -14.8937
16068 1 -4.55079 -4.51528 -14.7281 29.1065 -4.51528 -14.7281
1408 1 -6.19376 -4.4015 -14.5774 -6.19376 -4.4015 -14.5774
4691 1 -3.47237 -3.47187 -14.2026 -3.47237 -3.47187 -14.2026
11792 1 -2.27728 -3.07532 -14.3163 -2.27728 -3.07532 19.3409
11310 1 -0.569179 -4.44566 -14.6198 -0.569179 -38.1029 19.0374
12386 1 -14.6529 -3.07227 -14.4538 19.0043 -3.07227 -14.4538
7877 1 -14.8405 -1.35622 -14.8381 -14.8405 -1.35622 18.8192
11013 1 -13.5399 -2.30497 -14.5017 20.1173 -2.30497 19.1555
4349 1 -11.3833 -2.37987 -15.3663 -11.3833 -2.37987 -15.3663
1023 1 -12.5106 -2.13673 -14.553 -12.5106 -2.13673 -14.553
9756 1 -10.3177 -2.94733 -13.8509 23.3396 -36.6046 -13.8509
696 1 -7.43879 -2.70115 -14.6721 -7.43879 -2.70115 -14.6721
4345 1 -8.77174 -1.44742 -14.799 -8.77174 -1.44742 -14.799
6851 1 -6.07358 -1.78239 -15.0046 -6.07358 -1.78239 18.6527
1648 1 -5.60641 -2.18955 -14.0193 -5.60641 -2.18955 -14.0193
4205 1 -4.34333 -2.02031 -15.0073 -4.34333 31.6369 -15.0073
324 1 -3.91534 -2.2886 -14.0484 -3.91534 -2.2886 -14.0484
5765 1 -2.36927 -1.79568 -14.5868 -2.36927 -1.79568 -14.5868
13563 1 -1.27823 -1.63457 -15.7461 -1.27823 -1.63457 -15.7461
6784 1 -0.324791 -1.72835 -14.7702 -0.324791 -1.72835 18.887
7181 1 -16.146 -0.964664 -15.0788 -16.146 -0.964664 -15.0788
4005 1 -13.5933 -3.38075 -16.6132 -13.5933 -3.38075 17.0441
4082 1 -13.5835 -1.18316 -14.7365 -13.5835 -1.18316 -14.7365
1503 1 -13.0728 -0.592402 -13.8463 -13.0728 -34.2497 -13.8463
737 1 -11.9564 -1.3077 -13.9882 -11.9564 -1.3077 -13.9882
2135 1 -10.9528 -0.565431 -15.7668 -10.9528 -0.565431 17.8905
9221 1 -10.743 -1.74481 -14.036 -10.743 -1.74481 -14.036
11676 1 -8.65163 -0.0118331 -14.2342 25.0056 -0.0118331 19.4231
9395 1 -7.72767 -0.992431 -14.1249 25.9296 -0.992431 -14.1249
9658 1 -0.234551 -16.0709 -9.52076 -0.234551 -16.0709 -9.52076
15013 1 -5.76676 -0.496143 -15.5737 -5.76676 -0.496143 18.0836
14637 1 -3.57706 -0.0328418 -15.0041 -3.57706 -0.0328418 -15.0041
7075 1 -2.52618 -0.275694 -14.5961 -2.52618 -0.275694 19.0612
46 1 -1.81412 -0.891714 -13.7147 -1.81412 -0.891714 -13.7147
2880 1 -15.8336 -11.249 -0.527357 -15.8336 -11.249 -0.527357
2429 1 -15.5821 -16.3832 -13.8909 -15.5821 -16.3832 19.7663
2851 1 -13.3847 -16.5796 -12.9235 -13.3847 -16.5796 20.7337
7676 1 -16.7517 -11.3011 -2.67524 16.9056 22.3562 -2.67524
15758 1 -11.8545 -15.9125 -12.689 21.8027 17.7447 -12.689
12861 1 -9.58371 -16.3282 -13.4409 -9.58371 17.329 -13.4409
1968 1 -7.31168 -16.4538 -12.36 -7.31168 -16.4538 -12.36
1231 1 -2.85105 -16.695 -13.298 -2.85105 -16.695 -13.298
6597 1 -1.59876 -16.1593 -12.6732 -1.59876 17.4979 20.984
14239 1 -0.046022 -16.1689 -12.9415 -0.046022 17.4883 -12.9415
6965 1 -16.7261 -15.3127 -12.554 -16.7261 18.3446 21.1032
11146 1 -16.3951 -15.363 -13.8836 17.2622 -15.363 19.7737
10007 1 -15.2057 -14.7242 -13.4548 18.4516 -14.7242 -13.4548
3063 1 -12.9483 -14.1306 -13.8433 -12.9483 -14.1306 19.814
761 1 -14.1893 -15.2624 -13.3904 -14.1893 -15.2624 -13.3904
7900 1 -14.1834 -14.23 -12.0998 -14.1834 19.4273 21.5575
1290 1 -12.0157 -14.0599 -13.4401 -12.0157 -14.0599 -13.4401
14931 1 -12.7001 -15.3327 -13.2561 20.9572 18.3246 20.4011
1171 1 -10.7078 -15.8612 -13.5302 -44.3651 -15.8612 -13.5302
3110 1 -10.1165 -15.2229 -12.7414 -10.1165 -15.2229 20.9159
9845 1 -10.617 -14.0514 -13.6853 23.0402 -14.0514 -13.6853
4054 1 -9.34535 -15.3561 -14.6403 -9.34535 -15.3561 19.0169
7646 1 -8.08848 -13.9698 -13.6542 -8.08848 19.6875 20.0031
124 1 -8.61695 -15.4387 -12.9212 -8.61695 -15.4387 -12.9212
13952 1 -7.10053 -14.3142 -13.0868 -7.10053 19.343 -13.0868
13962 1 -7.26512 -15.6722 -13.5395 26.3921 -15.6722 -13.5395
5217 1 -4.63432 -15.1301 -13.0291 -4.63432 18.5271 -13.0291
10691 1 -3.74875 -14.5855 -12.2608 29.9085 -14.5855 21.3965
1814 1 -3.10635 -14.8008 -13.4716 -3.10635 -14.8008 -13.4716
9096 1 -1.6558 -15.1097 -13.3758 -1.6558 -15.1097 -13.3758
3482 1 -0.569319 -14.9587 -12.8221 -0.569319 18.6986 20.8352
2399 1 -16.6261 -13.5805 -13.017 -16.6261 -13.5805 20.6402
1740 1 -15.1306 -13.1403 -13.1064 18.5266 -13.1403 -13.1064
767 1 -14.0502 -13.5145 -13.4815 -14.0502 -13.5145 -13.4815
15064 1 -12.6828 -12.8333 -12.9868 20.9745 -12.8333 20.6705
13957 1 -11.3206 -12.8842 -13.8776 22.3367 20.773 -13.8776
8850 1 -10.3537 -12.7613 -12.5649 23.3035 -12.7613 -12.5649
336 1 -9.78355 -13.2317 -13.9935 -9.78355 -13.2317 -13.9935
523 1 -7.63436 -13.1608 -13.0295 -7.63436 -13.1608 -13.0295
5388 1 -6.01306 -14.4335 -13.1766 -6.01306 19.2238 -13.1766
5159 1 -4.00142 -13.5236 -13.1452 -4.00142 20.1337 -13.1452
12351 1 -1.95538 -13.873 -13.1774 31.7019 19.7842 -13.1774
4680 1 -1.38943 -12.933 -13.875 -1.38943 20.7242 -13.875
8795 1 -16.4812 -11.5488 -13.4286 17.1761 -11.5488 -13.4286
11865 1 -14.4789 -11.9558 -13.5493 19.1784 -11.9558 20.1079
10172 1 -13.3206 -12.0048 -13.5705 20.3366 -12.0048 -13.5705
1435 1 -10.7419 -11.8173 -13.7153 -10.7419 -11.8173 -13.7153
7848 1 -8.93157 -12.0321 -13.2076 -8.93157 21.6251 20.4497
10676 1 -7.0362 -11.9605 -12.9942 -7.0362 -11.9605 -12.9942
1461 1 -7.9161 -11.1814 -12.7637 -7.9161 -11.1814 -12.7637
8036 1 -6.80434 -11.0489 -13.913 -6.80434 22.6083 19.7442
951 1 -5.53692 -12.7748 -13.745 -5.53692 -12.7748 -13.745
6380 1 -4.90525 -11.4534 -13.5342 -4.90525 -11.4534 -13.5342
3551 1 -3.61996 -11.9896 -13.6152 -3.61996 -11.9896 -13.6152
4720 1 -2.53398 -13.051 -13.5499 -2.53398 20.6062 -13.5499
10111 1 -1.72032 -12.2691 -13.1881 -1.72032 -12.2691 -13.1881
9183 1 -1.45168 -11.2162 -14.1315 -1.45168 -11.2162 -14.1315
15834 1 -0.504031 -12.0728 -13.468 -0.504031 -12.0728 20.1892
2548 1 -16.4082 -10.042 -13.1008 -16.4082 -10.042 20.5564
10949 1 -8.84771 -9.25584 -16.6314 24.8095 -9.25584 17.0259
10043 1 -15.3267 -10.5614 -13.0075 18.3305 -10.5614 -13.0075
1331 1 -12.4163 -11.4883 -12.8786 -12.4163 -11.4883 -12.8786
11919 1 -11.0048 -10.8026 -12.9011 22.6525 -10.8026 20.7561
1761 1 -9.77303 -11.012 -13.2084 -9.77303 -11.012 -13.2084
12283 1 -7.52519 -10.2567 -12.5761 -7.52519 -10.2567 21.0812
3074 1 -6.38913 -10.2702 -13.274 -6.38913 -10.2702 20.3832
3618 1 -4.82344 -10.8569 -12.2894 -4.82344 -10.8569 21.3679
6994 1 -3.71055 -10.7983 -13.4985 -3.71055 -10.7983 20.1588
2710 1 -2.3838 -11.3204 -13.2315 -2.3838 -11.3204 20.4257
8804 1 -1.51537 -10.0752 -13.3662 -1.51537 -10.0752 -13.3662
7610 1 -10.7536 -2.27808 -1.21598 -10.7536 -2.27808 -1.21598
12056 1 -15.1811 -9.35834 -13.5134 -15.1811 -9.35834 20.1439
3528 1 -13.9197 -9.76671 -12.7633 -13.9197 -9.76671 -12.7633
740 1 -11.9706 -8.60179 -14.3411 -11.9706 -8.60179 -14.3411
192 1 -10.9536 -8.74286 -12.43 -10.9536 -8.74286 -12.43
1910 1 -12.0692 -9.9955 -13.5251 -12.0692 -9.9955 -13.5251
899 1 -9.40644 -9.81609 -13.7083 -9.40644 -9.81609 -13.7083
5423 1 -10.6921 -9.62964 -13.7425 -10.6921 -9.62964 -13.7425
2147 1 -8.37593 -9.61666 -13.1583 -8.37593 -9.61666 20.499
9124 1 -7.36486 -9.13754 -13.5253 -7.36486 -9.13754 -13.5253
1711 1 -6.92787 -9.2827 -12.2963 -6.92787 -9.2827 -12.2963
4295 1 -5.95296 -8.88373 -13.6464 -5.95296 -8.88373 -13.6464
4807 1 -5.18212 -9.85537 -13.0852 -5.18212 23.8019 -13.0852
13517 1 -4.13729 -8.77041 -13.0192 -4.13729 24.8868 -13.0192
6378 1 -2.73823 -8.97343 -14.2205 -2.73823 -8.97343 19.4368
4581 1 -1.78811 -8.13527 -13.0336 -1.78811 -8.13527 -13.0336
4007 1 -16.0933 -8.57689 -13.7895 -16.0933 -8.57689 19.8678
8500 1 -16.3559 -7.15584 -12.6984 17.3014 -7.15584 -12.6984
335 1 -15.4969 -7.80316 -12.7551 -15.4969 -7.80316 -12.7551
13798 1 -14.1174 -8.45425 -12.5694 19.5398 25.203 -12.5694
12226 1 -12.8961 -7.49987 -13.5792 -12.8961 -7.49987 20.0781
12169 1 -11.1678 -8.09316 -13.275 -11.1678 -8.09316 -13.275
3061 1 -8.70733 -8.21845 -12.8503 -8.70733 -8.21845 20.807
2801 1 -10.1524 -6.82164 -13.2313 -10.1524 -6.82164 20.426
5155 1 -7.94761 -7.71247 -13.4761 -7.94761 25.9448 -13.4761
751 1 -6.73618 -7.47954 -14.045 -6.73618 -7.47954 -14.045
310 1 -5.05931 -8.57982 -14.3875 -5.05931 -8.57982 -14.3875
9950 1 -4.95156 -7.72483 -12.5449 -4.95156 -7.72483 -12.5449
12840 1 -3.59556 -7.04782 -13.0694 -3.59556 26.6094 -13.0694
797 1 -1.22349 -7.18295 -13.8412 -1.22349 -7.18295 -13.8412
12340 1 0.00494643 -7.37939 -13.4265 0.00494643 -7.37939 20.2307
9339 1 -14.3864 -5.96087 -13.7857 19.2709 -5.96087 -13.7857
97 1 -15.3668 -6.92748 -13.785 -15.3668 -6.92748 -13.785
10724 1 -14.1933 -7.03131 -13.153 -14.1933 -7.03131 20.5043
2398 1 -11.651 -6.77753 -13.6744 -11.651 -6.77753 19.9829
15923 1 -10.3863 -5.88659 -13.663 23.2709 -5.88659 19.9943
2054 1 -9.11794 -6.77267 -13.6811 -9.11794 -6.77267 19.9761
205 1 -8.11032 -5.81476 -12.5363 -8.11032 -5.81476 -12.5363
13950 1 -7.71291 -7.02175 -12.5513 -7.71291 -7.02175 -12.5513
13632 1 -5.46028 -6.8522 -13.3913 -5.46028 -6.8522 -13.3913
9368 1 -4.72945 -5.8398 -13.7653 -4.72945 -5.8398 -13.7653
912 1 -3.51361 -5.99616 -12.2922 -3.51361 -5.99616 -12.2922
10824 1 -1.88327 -6.25308 -12.6953 -1.88327 -6.25308 20.9619
13477 1 -0.557988 -6.01316 -13.1536 -0.557988 27.6441 -13.1536
4176 1 -15.4409 -5.51089 -13.1171 -15.4409 -5.51089 -13.1171
1894 1 -15.1365 -4.67181 -14.1246 -15.1365 -4.67181 -14.1246
9991 1 -14.396 -5.09246 -12.2895 19.2613 -5.09246 -12.2895
392 1 -12.1168 -4.68898 -13.097 -12.1168 -4.68898 -13.097
10037 1 -13.4224 -6.1397 -13.348 -13.4224 -6.1397 -13.348
3363 1 -11.5907 -5.51908 -12.7705 -11.5907 -5.51908 20.8867
8097 1 -10.1232 -4.02997 -12.9085 -10.1232 -4.02997 20.7488
1975 1 -9.28036 -5.41713 -13.7032 -9.28036 -5.41713 -13.7032
2264 1 -9.33558 -3.7929 -14.2637 -9.33558 -3.7929 19.3936
12350 1 -7.07899 -5.59873 -13.9437 -7.07899 28.0585 -13.9437
1887 1 -5.73789 -5.1379 -13.8603 -5.73789 -5.1379 -13.8603
1590 1 -4.39585 -4.37552 -13.4701 -4.39585 -4.37552 -13.4701
4566 1 -3.73974 -5.19869 -13.1204 -3.73974 28.4586 -13.1204
9673 1 -3.40284 -3.81813 -13.0119 -3.40284 -3.81813 -13.0119
2231 1 -1.89028 -4.59497 -13.052 -1.89028 -4.59497 20.6052
8131 1 -0.4316 -4.9715 -13.3263 -0.4316 -4.9715 -13.3263
4346 1 -16.2425 -4.60755 -13.6624 -16.2425 -4.60755 -13.6624
2303 1 -13.3184 -3.24718 -13.7138 -13.3184 -3.24718 19.9435
7670 1 -14.5632 -4.21547 -13.005 -14.5632 -4.21547 20.6522
12427 1 -15.2889 -3.2747 -13.0968 18.3683 -3.2747 -13.0968
8744 1 -11.056 -3.5545 -14.393 22.6012 -3.5545 -14.393
6 1 -10.1779 -2.73844 -12.0759 -10.1779 -2.73844 -12.0759
1763 1 -10.7987 -3.21242 -12.884 -10.7987 -3.21242 -12.884
5089 1 -8.945 -4.40446 -13.027 -8.945 -4.40446 -13.027
1866 1 -7.85798 -3.58332 -13.9367 -7.85798 -3.58332 -13.9367
570 1 -7.94443 -4.55564 -13.5019 -7.94443 -4.55564 -13.5019
13603 1 -6.38494 -3.37715 -13.6716 -6.38494 -3.37715 -13.6716
13501 1 -5.11922 -3.10065 -13.7604 -5.11922 -3.10065 -13.7604
1702 1 -2.55009 -3.93832 -13.7292 -2.55009 -3.93832 -13.7292
287 1 -0.601839 -2.33806 -13.4342 -0.601839 31.3192 -13.4342