ITEM: TIMESTEP
3000
ITEM: NUMBER OF ATOMS
16384
ITEM: BOX BOUNDS pp pp pp
-1.6828627036276380e+01 1.6828627036276380e+01
-1.6828627036276380e+01 1.6828627036276380e+01
-1.6828627036276380e+01 1.6828627036276380e+01
ITEM: ATOMS id type x y z xu yu zu
6678 1 -16.7435 -15.2393 -15.2342 -16.7435 18.4179 18.4231
671 1 -14.5472 -16.0995 -15.9004 -14.5472 -16.0995 -15.9004
3388 1 -0.520434 -0.415269 -2.96566 -0.520434 -0.415269 -2.96566
2851 1 -12.7054 -16.2991 -15.5625 -12.7054 -16.2991 18.0948
4401 1 -0.72054 -16.0325 -8.95608 -0.72054 17.6248 -8.95608
4514 1 -9.22767 -14.815 -15.8329 -9.22767 18.8423 -15.8329
7130 1 -8.7072 -15.7943 -16.4292 -8.7072 17.863 17.2281
2049 1 -2.30727 -2.88044 -16.7941 -2.30727 -2.88044 16.8632
1326 1 -15.9077 -12.1742 -1.20953 -15.9077 -12.1742 -1.20953
9435 1 -7.40363 -15.0178 -15.9652 26.2536 -15.0178 -15.9652
11648 1 -5.29705 -15.4729 -14.6348 -5.29705 -15.4729 19.0224
7035 1 -3.50051 -16.3786 -16.317 -3.50051 17.2787 17.3402
6376 1 -4.52547 -16.1199 -15.1142 -4.52547 17.5374 18.5431
12778 1 -0.158667 -1.45838 -3.12957 -0.158667 -1.45838 -3.12957
8260 1 -1.95525 -15.2716 -15.8833 -1.95525 -15.2716 -15.8833
11707 1 -11.1637 -0.595089 -3.09284 22.4936 -0.595089 30.5644
146 1 -16.6553 -15.0968 -16.2749 -16.6553 -15.0968 -16.2749
3889 1 -2.82341 -8.80204 -16.7427 -2.82341 -8.80204 -16.7427
9407 1 -13.3328 -13.7755 -16.6501 20.3244 -13.7755 -16.6501
554 1 -13.5068 -15.4518 -16.1088 -13.5068 -15.4518 -16.1088
14882 1 -10.5876 -15.1864 -15.0621 23.0697 18.4709 18.5952
8100 1 -12.0954 -14.456 -16.0865 -45.7527 19.2013 17.5707
8965 1 -9.00719 -13.5665 -16.6532 24.6501 -13.5665 -16.6532
1535 1 -8.21533 -14.1486 -16.0319 -8.21533 -14.1486 17.6254
8868 1 -6.59194 -15.7993 -15.0047 -6.59194 -15.7993 -15.0047
16382 1 -5.43814 -14.4497 -15.5153 -5.43814 19.2076 -15.5153
4572 1 -4.05016 -15.0799 -16.6487 -4.05016 18.5773 -16.6487
8669 1 -3.78046 -15.2254 -15.3761 -3.78046 -15.2254 -15.3761
5300 1 -1.93337 -13.6828 -16.5354 -1.93337 19.9745 -16.5354
15718 1 -0.0126825 -16.0302 -14.9193 -0.0126825 17.6271 -14.9193
15279 1 -0.571447 -14.7346 -15.9811 -0.571447 18.9227 17.6762
11649 1 -15.875 -14.0671 -15.6121 17.7823 -14.0671 18.0451
9002 1 -0.731503 -8.12881 -16.5546 -0.731503 -8.12881 -16.5546
15107 1 -14.4753 -14.3424 -15.8858 19.182 -14.3424 17.7714
2051 1 -14.9852 -13.0794 -16.1908 -14.9852 -13.0794 17.4665
8786 1 -11.4734 -13.1608 -15.2979 22.1838 -13.1608 -15.2979
5496 1 -0.0569882 -3.92556 -6.30933 -0.0569882 -3.92556 -6.30933
11871 1 -1.5306 -0.396944 -9.92379 -1.5306 -0.396944 23.7335
4859 1 -8.88111 -12.4388 -16.2225 -8.88111 21.2184 -16.2225
13414 1 -14.4424 -15.6282 -3.64072 19.2149 18.029 -3.64072
10691 1 -4.85681 -13.6969 -14.9067 28.8004 -13.6969 18.7505
3524 1 -16.6017 -11.304 -11.4753 -16.6017 -11.304 22.182
8255 1 -3.63159 -12.8084 -15.6081 -3.63159 -12.8084 -15.6081
10721 1 -9.82599 -16.3193 -12.6438 23.8313 -16.3193 -12.6438
9099 1 -2.20094 -12.6098 -16.0395 -2.20094 -12.6098 -16.0395
8540 1 -0.232889 -13.6752 -15.7461 -0.232889 -13.6752 -15.7461
12696 1 -15.922 -11.4147 -15.5261 17.7353 22.2425 -15.5261
5205 1 -16.66 -4.18792 -4.21667 -16.66 -4.18792 -4.21667
10 1 -7.61111 -2.9618 -16.3899 -7.61111 -2.9618 -16.3899
12827 1 -13.5914 -11.2866 -15.2724 -13.5914 22.3706 -15.2724
1251 1 -10.5567 -12.1879 -15.791 -10.5567 21.4694 -15.791
6579 1 -12.5415 -13.0722 -15.692 -12.5415 20.5851 17.9653
13813 1 -9.14697 -11.9206 -15.2139 24.5103 21.7367 -15.2139
6523 1 -8.37608 -11.1369 -15.9835 -8.37608 22.5203 17.6737
992 1 -3.49058 -0.311943 -7.43494 -3.49058 -0.311943 -7.43494
357 1 -5.58603 -12.8567 -15.6716 -5.58603 -12.8567 -15.6716
2426 1 -6.295 -12.003 -16.1235 -6.295 -12.003 17.5337
8860 1 -4.65871 -12.4361 -14.9412 -4.65871 -12.4361 -14.9412
4740 1 -3.159 -0.00430786 -9.2464 -3.159 -0.00430786 -9.2464
13157 1 -2.97421 -11.8511 -16.4504 -2.97421 21.8061 -16.4504
13447 1 -6.12649 -13.3898 -16.398 27.5308 20.2674 -16.398
12244 1 -2.09805 -10.4279 -16.015 31.5592 -10.4279 17.6422
642 1 -1.46194 -11.7844 -16.5575 -1.46194 -11.7844 -16.5575
1375 1 -16.6606 -10.1172 -15.392 -16.6606 -10.1172 -15.392
11911 1 -13.547 -5.08667 -0.0761876 20.1102 -5.08667 -0.0761876
13271 1 -13.1157 -10.2338 -15.5119 20.5416 23.4234 -15.5119
4219 1 -12.2497 -11.496 -16.1636 -12.2497 22.1613 -16.1636
3607 1 -1.00133 -16.7325 -7.41334 -1.00133 -16.7325 -7.41334
2341 1 -10.604 -9.74175 -16.507 -10.604 -9.74175 17.1503
3722 1 -8.05184 -10.7673 -14.8683 -8.05184 -10.7673 18.7889
1426 1 -7.11467 -10.8426 -15.8129 -7.11467 -10.8426 -15.8129
8173 1 -5.71551 -11.6059 -15.1159 -5.71551 22.0513 18.5414
13956 1 -15.9158 -1.22301 -13.6062 17.7414 -1.22301 -13.6062
8402 1 -4.51634 -11.076 -16.1819 -4.51634 -11.076 -16.1819
6944 1 -3.35728 -11.1196 -15.6523 -3.35728 22.5377 18.0049
4226 1 -9.13703 -16.1997 -0.337799 -9.13703 17.4576 -0.337799
8956 1 -0.529574 -10.8243 -16.8385 -0.529574 -10.8243 -16.8385
12192 1 -14.6016 -8.05539 -16.417 19.0557 -8.05539 17.2402
179 1 -12.9915 -9.98533 -16.5419 -12.9915 -9.98533 -16.5419
5222 1 -7.89413 -0.947219 -3.163 -7.89413 -0.947219 -3.163
7332 1 -7.68109 -16.6573 -15.5293 -7.68109 16.9999 18.1279
1438 1 -9.87342 -9.11937 -15.7244 -9.87342 -9.11937 -15.7244
503 1 -9.4235 -10.0622 -15.6529 -9.4235 -10.0622 -15.6529
9202 1 -16.8151 -14.9196 -10.1059 16.8422 18.7377 -10.1059
1305 1 -6.04633 -9.49116 -15.8805 -6.04633 -9.49116 -15.8805
10054 1 -4.91106 -9.52989 -16.2095 -4.91106 -9.52989 -16.2095
11149 1 -3.45973 -10.0054 -16.25 -3.45973 -10.0054 17.4072
12289 1 -1.60939 -7.98017 -15.4908 -1.60939 25.6771 18.1664
394 1 -16.2401 -8.87922 -15.6848 -16.2401 -8.87922 -15.6848
8831 1 -15.1609 -7.79184 -15.0024 18.4964 -7.79184 -15.0024
2623 1 -15.1301 -6.61992 -16.3781 -15.1301 -6.61992 17.2791
53 1 -14.345 -8.77763 -15.2452 -14.345 -42.4349 -15.2452
14935 1 -13.8612 -7.19125 -16.4241 -13.8612 -7.19125 17.2332
12522 1 -12.5181 -7.72275 -16.7495 -12.5181 -7.72275 -16.7495
5025 1 -11.9546 -8.15846 -15.8127 -11.9546 -8.15846 -15.8127
2261 1 -8.96984 -8.22459 -14.7924 -8.96984 -8.22459 18.8649
11538 1 -7.86429 -7.40866 -15.1955 25.793 -7.40866 18.4618
1760 1 -7.38822 -8.1909 -15.9227 -7.38822 -8.1909 -15.9227
7530 1 -8.53451 -9.13291 -15.5047 -8.53451 -9.13291 18.1526
8833 1 -9.55179 -0.213415 -0.245492 24.1055 -0.213415 -0.245492
3974 1 -16.7812 -4.47367 -12.8707 -16.7812 -4.47367 20.7865
8503 1 -3.98653 -8.01052 -16.4415 -3.98653 -8.01052 -16.4415
1256 1 -0.206469 -7.77917 -15.4641 -0.206469 -7.77917 -15.4641
13080 1 -0.341703 -6.87463 -14.0787 -0.341703 26.7826 -14.0787
12274 1 -11.8593 -7.80638 -0.0560139 21.7979 -7.80638 -0.0560139
1953 1 -14.8947 -5.51789 -15.442 -14.8947 -5.51789 -15.442
6982 1 -12.3758 -6.96587 -15.6419 -12.3758 -6.96587 18.0154
1639 1 -10.1393 -7.17794 -15.8982 -10.1393 -7.17794 -15.8982
9864 1 -11.3525 -6.40921 -16.5421 -11.3525 -6.40921 -16.5421
8191 1 -8.37285 -5.67131 -16.7863 -8.37285 -5.67131 16.871
6382 1 -3.41705 -0.945226 -2.56308 -3.41705 -0.945226 -2.56308
2873 1 -7.89509 -6.37639 -15.5779 -7.89509 -6.37639 18.0794
11381 1 -4.74919 -6.30278 -15.27 28.9081 -6.30278 18.3872
81 1 -3.80994 -5.86748 -16.2907 -3.80994 -5.86748 -16.2907
12283 1 -4.58469 -7.97482 -15.0274 -4.58469 -7.97482 18.6298
5386 1 -3.04027 -7.12308 -15.3121 -3.04027 26.5342 -15.3121
10316 1 -2.03674 -6.12443 -16.5807 -2.03674 -6.12443 17.0766
3649 1 -13.6458 -11.3136 -16.5596 -13.6458 -11.3136 17.0977
2394 1 -6.73101 -16.6208 -11.5477 -6.73101 -16.6208 -11.5477
10751 1 -15.6967 -3.21715 -15.7615 17.9606 -3.21715 17.8958
1965 1 -15.6022 -4.20347 -16.2104 -15.6022 -4.20347 -16.2104
10069 1 -13.9719 -4.79082 -14.771 19.6853 -4.79082 -14.771
3029 1 -12.6253 -4.58962 -16.4041 -12.6253 -4.58962 17.2532
3070 1 -11.4676 -4.9031 -15.21 -11.4676 -4.9031 18.4473
1912 1 -9.9884 -5.12205 -16.7329 -9.9884 -5.12205 -16.7329
3405 1 -10.1378 -6.26559 -15.114 -10.1378 -6.26559 18.5433
4995 1 -7.25106 -5.64944 -16.6301 -7.25106 -5.64944 -16.6301
9102 1 -6.26672 -5.77565 -15.3919 -6.26672 -5.77565 -15.3919
2185 1 -4.74249 -5.25939 -15.5917 -4.74249 -5.25939 18.0656
15509 1 -3.04084 -4.67464 -14.8737 -3.04084 -4.67464 18.7836
4774 1 -16.8064 -16.3737 -1.69089 -16.8064 17.2836 -1.69089
1884 1 -0.839573 -5.64559 -15.4892 -0.839573 -5.64559 -15.4892
1707 1 -16.7113 -3.65983 -14.3616 -16.7113 -3.65983 -14.3616
4094 1 -15.1605 -2.34336 -15.8261 -15.1605 -2.34336 -15.8261
12571 1 -1.14338 -16.2742 -15.9944 -1.14338 17.383 -15.9944
11112 1 -13.7648 -4.93138 -16.3206 19.8925 -4.93138 17.3366
2303 1 -12.2662 -2.42413 -16.5751 -12.2662 -2.42413 17.0821
4789 1 -12.7418 -3.15485 -15.1891 -12.7418 -3.15485 -15.1891
4724 1 -10.4319 -3.78224 -15.6896 -10.4319 -3.78224 -15.6896
9919 1 -6.89005 -0.110011 -7.56968 -6.89005 -0.110011 -7.56968
4321 1 -7.071 -3.65718 -15.2001 -7.071 -3.65718 -15.2001
4597 1 -8.45626 -3.86544 -15.7675 -8.45626 -3.86544 -15.7675
160 1 -6.53901 -1.79154 -16.0908 -6.53901 -1.79154 -16.0908
3424 1 -5.38819 -4.32658 -16.0557 -5.38819 -4.32658 17.6016
6214 1 -4.49913 -3.75819 -16.3776 -4.49913 -3.75819 17.2796
5666 1 -10.4424 -0.460359 -14.8301 -10.4424 -0.460359 -14.8301
13292 1 -1.69072 -4.59942 -16.3877 -1.69072 -4.59942 -16.3877
1169 1 -0.464996 -4.67168 -16.0322 -0.464996 -4.67168 -16.0322
5476 1 -14.7981 -0.385605 -1.03612 18.8592 -0.385605 -1.03612
15950 1 -13.5928 -3.82313 -15.4032 20.0644 -3.82313 18.254
13690 1 -10.9429 -2.49738 -15.7437 22.7143 -2.49738 -15.7437
2505 1 -8.00159 -2.81806 -15.0212 -8.00159 -2.81806 18.6361
15923 1 -9.8645 -2.46847 -14.9989 23.7928 -2.46847 18.6584
9756 1 -8.2613 -1.8115 -15.3986 25.396 -35.4688 -15.3986
7456 1 -11.2075 -16.6406 -16.1619 -11.2075 17.0166 -16.1619
5009 1 -11.238 -16.7936 -10.0149 -11.238 16.8636 -10.0149
5248 1 -5.6504 -3.30693 -16.4614 -5.6504 -3.30693 -16.4614
2764 1 -11.8578 -0.287946 -4.10349 -11.8578 -0.287946 -4.10349
4601 1 -0.26702 -4.93261 -4.22835 -33.9243 -4.93261 -37.8856
597 1 -9.01667 -8.27859 -16.6702 -42.6739 -8.27859 16.9871
13191 1 -1.15391 -3.60275 -15.8265 -1.15391 -3.60275 17.8307
9060 1 -16.4478 -0.244686 -15.5985 17.2095 -0.244686 -15.5985
6473 1 -16.2609 -1.62965 -15.3897 -16.2609 -1.62965 -15.3897
12653 1 -3.21391 -1.92225 -0.085872 -3.21391 -1.92225 -0.085872
7160 1 -14.4411 -0.138575 -16.5794 -14.4411 -0.138575 17.0779
8128 1 -14.1359 -1.12915 -16.0612 -14.1359 -1.12915 17.5961
16381 1 -11.6089 -0.0340015 -2.18248 22.0484 -0.0340015 -2.18248
11507 1 -9.62585 -2.58544 -16.1677 24.0314 -2.58544 17.4895
7745 1 -12.4908 -12.9345 -0.146705 -12.4908 20.7228 -0.146705
6430 1 -7.53194 -0.395503 -15.507 -7.53194 -0.395503 18.1503
5308 1 -5.82158 -0.892823 -15.5843 -5.82158 -0.892823 -15.5843
1690 1 -4.88126 -2.47722 -16.4193 -4.88126 -2.47722 -16.4193
4411 1 -5.53292 -1.624 -16.5267 -5.53292 -1.624 -16.5267
573 1 -2.62117 -1.16199 -15.8519 -2.62117 -1.16199 -15.8519
9315 1 -1.09611 -16.0112 -5.30554 -1.09611 -16.0112 -5.30554
1119 1 -0.487323 -1.65299 -16.116 -0.487323 -1.65299 -16.116
9210 1 -16.7196 -15.8065 -13.1173 16.9377 -15.8065 -13.1173
9535 1 -14.8851 -16.1061 -14.7017 18.7721 -16.1061 -14.7017
15121 1 -13.7147 -16.4345 -15.0624 19.9425 17.2228 18.5949
15758 1 -13.96 -15.4848 -14.1945 19.6973 18.1724 -14.1945
12986 1 -11.7086 -15.3146 -14.3722 -11.7086 18.3426 -14.3722
8926 1 -0.0201286 -13.507 -12.05 -0.0201286 -13.507 -12.05
10044 1 -9.74838 -15.8895 -14.2946 -9.74838 17.7677 -14.2946
12800 1 -0.206032 -2.37223 -15.0856 -0.206032 -2.37223 -15.0856
249 1 -4.13526 -13.1737 -0.974993 -4.13526 -13.1737 -0.974993
9119 1 -7.73386 -16.5722 -14.2672 -7.73386 -16.5722 -14.2672
9057 1 -0.00386103 -11.4387 -10.8071 -0.00386103 -11.4387 -10.8071
10321 1 -3.28598 -16.2598 -14.9573 -3.28598 -16.2598 18.6999
5159 1 -2.5016 -15.6738 -14.4315 -2.5016 17.9834 -14.4315
4720 1 -2.59989 -13.9853 -14.1277 -2.59989 19.672 -14.1277
2354 1 -1.19119 -15.4902 -14.8933 -1.19119 -15.4902 18.764
1539 1 -0.315436 -2.63463 -0.522585 -0.315436 -2.63463 -0.522585
1978 1 -13.9406 -12.4445 -15.8769 -13.9406 -12.4445 -15.8769
6965 1 -15.174 -14.5409 -14.7062 -15.174 19.1164 18.9511
2372 1 -14.1688 -13.8336 -14.1765 -14.1688 -13.8336 19.4808
1740 1 -12.0544 -14.2939 -13.8253 21.6028 -14.2939 -13.8253
15064 1 -10.532 -13.9034 -15.1254 23.1253 -13.9034 18.5319
9845 1 -8.88143 -14.07 -13.3861 24.7758 -14.07 -13.3861
74 1 -8.36699 -15.6198 -14.4966 -8.36699 -15.6198 -14.4966
523 1 -7.6325 -13.6137 -14.9021 -7.6325 -13.6137 -14.9021
5916 1 -5.68902 -15.4372 -13.5069 -5.68902 18.22 -13.5069
8719 1 -3.79892 -14.1145 -14.5921 -3.79892 -14.1145 -14.5921
2126 1 -1.72369 -14.1653 -14.918 -1.72369 -14.1653 18.7393
8760 1 -15.5047 -1.38548 -16.8013 18.1526 -1.38548 -16.8013
5027 1 -5.52332 -11.4865 -16.8176 -5.52332 22.1707 -16.8176
1176 1 -15.6733 -13.0433 -14.1875 -15.6733 -13.0433 -14.1875
3581 1 -12.8297 -14.3798 -14.7857 -12.8297 -14.3798 18.8715
7900 1 -12.4688 -13.3219 -14.2683 -12.4688 20.3354 19.3889
14187 1 -10.965 -14.4212 -14.0492 22.6922 19.2361 -14.0492
11190 1 -9.58331 -13.0321 -15.6692 -9.58331 -13.0321 17.988
1435 1 -9.2891 -12.8142 -14.0092 -9.2891 -12.8142 -14.0092
4054 1 -9.29417 -14.4854 -14.592 -9.29417 -14.4854 19.0653
4147 1 -7.21372 -12.3771 -14.6177 -7.21372 21.2802 -14.6177
9137 1 -7.4408 -12.4458 -15.8509 -7.4408 -12.4458 -15.8509
3127 1 -6.96307 -14.0984 -15.6338 -6.96307 -14.0984 18.0234
1429 1 -4.06076 -13.936 -13.2246 -4.06076 -13.936 -13.2246
5100 1 -6.15852 -14.7381 -14.2473 -6.15852 18.9192 -14.2473
9433 1 -3.31284 -12.9667 -13.607 -3.31284 -12.9667 -13.607
12146 1 -3.55073 -14.247 -15.9283 -3.55073 -14.247 17.729
7644 1 -2.40098 -12.2419 -14.5302 -2.40098 21.4154 19.127
9415 1 -16.2083 -12.9062 -15.4126 17.4489 -12.9062 -15.4126
11606 1 -16.5791 -11.8615 -14.3871 17.0782 -11.8615 -14.3871
5296 1 -13.6954 -12.5632 -14.8344 -13.6954 21.0941 -14.8344
2488 1 -10.2532 -13.0682 -14.6458 -10.2532 -13.0682 19.0114
1331 1 -9.94215 -11.9433 -14.4478 -9.94215 -11.9433 -14.4478
7848 1 -8.55804 -13.1504 -14.7787 -8.55804 20.5068 18.8785
1461 1 -7.96886 -11.9918 -13.7107 -7.96886 -11.9918 -13.7107
15864 1 -5.10002 -12.0377 -13.7758 -5.10002 21.6196 19.8815
8036 1 -6.55479 -11.2652 -14.0695 -6.55479 22.392 19.5877
12016 1 -3.44282 -11.9968 -14.7327 -3.44282 -11.9968 18.9246
5990 1 -4.02158 -11.9191 -13.8709 -4.02158 -11.9191 -13.8709
9896 1 -1.27524 -11.8523 -15.2164 -1.27524 -11.8523 -15.2164
3087 1 -5.48393 -15.4954 -0.489698 -5.48393 -15.4954 -0.489698
10949 1 -8.14249 -9.03847 -16.6593 25.5148 -9.03847 16.998
3510 1 -5.61299 -1.01395 -3.37454 -5.61299 -1.01395 -3.37454
7931 1 -16.1515 -10.9226 -13.8106 -16.1515 22.7346 19.8466
2548 1 -14.5048 -10.5054 -15.7066 -14.5048 -10.5054 17.9506
11856 1 -14.0583 -11.3636 -14.0833 19.5989 -11.3636 19.574
1175 1 -11.6785 -10.1636 -15.1949 -11.6785 -10.1636 -15.1949
8215 1 -12.2332 -10.7587 -14.197 -12.2332 22.8986 19.4603
4235 1 -10.3887 -11.1819 -15.7079 -10.3887 22.4753 17.9494
733 1 -9.68777 -10.7401 -14.882 -9.68777 -10.7401 -14.882
6380 1 -7.86128 -10.1185 -13.7235 -7.86128 -10.1185 -13.7235
3074 1 -5.87364 -10.389 -14.3183 -5.87364 -10.389 19.3389
3551 1 -4.63521 -11.0998 -14.7713 -4.63521 -11.0998 -14.7713
1895 1 -4.96205 -9.07534 -13.398 -4.96205 -9.07534 -13.398
7037 1 -3.45118 -10.3756 -14.7068 -3.45118 23.2817 18.9504
6428 1 -0.747195 -10.3088 -15.468 -0.747195 23.3485 18.1893
5235 1 -11.2167 -5.15103 -16.4104 -11.2167 -5.15103 -16.4104
10344 1 -14.6412 -9.45715 -16.053 19.016 -9.45715 17.6043
3528 1 -13.8458 -8.36273 -14.3253 -13.8458 -8.36273 -14.3253
12056 1 -15.1471 -10.018 -14.6909 -15.1471 -10.018 18.9664
13617 1 -11.7101 -9.36428 -16.2032 -11.7101 24.293 -16.2032
808 1 -10.7163 -8.95522 -15.0174 -10.7163 -8.95522 -15.0174
12045 1 -11.4739 -7.96116 -14.6189 22.1833 -7.96116 19.0384
1536 1 -9.44136 -9.38802 -14.0417 -9.44136 -9.38802 -14.0417
10984 1 -7.66267 -9.70009 -14.8288 25.9946 -9.70009 18.8284
389 1 -5.9239 -9.273 -14.1784 -5.9239 -9.273 -14.1784
8083 1 -4.75275 -10.0088 -14.9161 -4.75275 -10.0088 18.7412
751 1 -4.09643 -9.17711 -15.2685 -4.09643 -9.17711 -15.2685
8415 1 -2.15148 -9.23515 -14.9541 -2.15148 -9.23515 -14.9541
616 1 -0.748901 -9.3051 -15.1493 -0.748901 -9.3051 -15.1493
12648 1 -0.289327 -1.23541 -5.52486 -0.289327 -1.23541 -5.52486
2361 1 -14.9883 -6.7882 -13.8504 -14.9883 -6.7882 19.8069
335 1 -13.2494 -7.86024 -15.5262 -13.2494 -7.86024 -15.5262
5423 1 -9.6118 -7.80925 -13.9666 -9.6118 -7.80925 -13.9666
2147 1 -9.59795 -8.31895 -12.6196 -9.59795 -8.31895 21.0377
12169 1 -8.30479 -8.19691 -13.6249 -8.30479 -8.19691 -13.6249
9124 1 -7.18567 -8.88696 -14.3548 -7.18567 -8.88696 -14.3548
1843 1 -6.43665 -7.9159 -14.9837 -6.43665 -7.9159 -14.9837
4295 1 -5.43343 -8.63366 -14.8695 -5.43343 -8.63366 -14.8695
310 1 -5.58604 -7.71089 -13.617 -5.58604 -7.71089 -13.617
11584 1 -3.17224 -8.09849 -15.1458 -3.17224 -8.09849 18.5115
13829 1 -0.174784 -8.75533 -13.7106 -0.174784 -8.75533 -13.7106
13260 1 -16.3141 -5.93864 -14.941 17.3431 27.7186 -14.941
13987 1 -15.7822 -4.37046 -14.9649 17.875 -4.37046 -14.9649
8057 1 -14.9362 -6.74652 -15.009 -14.9362 -6.74652 -15.009
6334 1 -13.6306 -6.34078 -14.827 -13.6306 -6.34078 18.8303
11708 1 -13.3324 -7.317 -13.7861 -13.3324 -7.317 19.8712
480 1 -10.906 -7.01165 -14.6227 -10.906 -7.01165 -14.6227
12503 1 -9.05977 -7.17448 -15.6953 24.5975 26.4828 -15.6953
1975 1 -8.70901 -5.27324 -14.2561 -8.70901 -5.27324 -14.2561
2611 1 -8.97799 -6.05945 -15.5253 -8.97799 -6.05945 18.1319
205 1 -8.99547 -6.98983 -13.9395 -8.99547 -6.98983 -13.9395
7366 1 -6.92459 -6.78568 -14.2575 -6.92459 -6.78568 19.3997
3004 1 -5.79787 -6.62734 -14.4464 -5.79787 -6.62734 19.2109
8505 1 -3.64881 -5.51435 -15.1533 -3.64881 -5.51435 -15.1533
5563 1 -3.19678 -6.15799 -14.1543 -3.19678 -6.15799 -14.1543
5261 1 -1.84193 -7.255 -14.5682 -1.84193 -7.255 -14.5682
2250 1 -1.20747 -6.61267 -15.3689 -1.20747 -6.61267 18.2884
4619 1 -16.478 -4.85195 -15.6088 -16.478 -4.85195 -15.6088
4711 1 -15.0195 -5.61887 -14.0861 -15.0195 28.0384 -14.0861
5522 1 -12.6786 -5.41811 -13.6819 -12.6786 -5.41811 -13.6819
6 1 -9.80474 -3.96302 -13.4621 -9.80474 -3.96302 -13.4621
13798 1 -11.8189 -6.13289 -15.4291 21.8383 27.5244 -15.4291
8056 1 -7.20237 -4.7954 -15.4513 -7.20237 -4.7954 18.206
1866 1 -8.00154 -4.41106 -14.055 -8.00154 -4.41106 -14.055
621 1 -5.45088 -3.6551 -14.7204 -5.45088 -3.6551 -14.7204
3263 1 -6.46477 -3.5107 -14.1744 -6.46477 -3.5107 19.4829
10259 1 -5.76976 -5.45307 -13.7175 -5.76976 -5.45307 -13.7175
11792 1 -2.8627 -4.19887 -13.7838 -2.8627 -4.19887 19.8734
11978 1 -1.94602 -4.35607 -15.1886 -1.94602 -4.35607 18.4687
1625 1 -2.28625 -5.76429 -15.5196 -2.28625 -5.76429 -15.5196
12615 1 -0.462973 -4.68991 -14.7851 -0.462973 28.9673 -14.7851
287 1 -0.76252 -4.06962 -13.9697 -0.76252 29.5876 -13.9697
14908 1 -16.812 -2.49719 -13.6996 16.8452 -2.49719 19.9576
9339 1 -12.8972 -4.22836 -13.9602 20.76 -4.22836 -13.9602
1894 1 -14.1997 -3.36674 -14.0654 -14.1997 -3.36674 -14.0654
9678 1 -11.7593 -4.18512 -15.9109 21.8979 -4.18512 -15.9109
10037 1 -11.6435 -3.95798 -13.8922 -11.6435 -3.95798 -13.8922
3363 1 -9.78799 -4.6763 -14.5169 -9.78799 -4.6763 19.1404
696 1 -5.74019 -2.68553 -15.193 -5.74019 -2.68553 -15.193
13563 1 -4.02071 -3.47309 -15.0273 -4.02071 -3.47309 -15.0273
7275 1 -2.10821 -3.38629 -14.9187 -2.10821 30.271 18.7385
8716 1 -1.1439 -2.75632 -14.6718 -1.1439 -2.75632 -14.6718
12468 1 -0.695072 -16.6607 -1.55119 -0.695072 16.9966 -1.55119
323 1 -14.6434 -4.03577 -15.0017 -14.6434 -4.03577 -15.0017
4973 1 -14.056 -2.28383 -15.685 -14.056 -2.28383 -15.685
4349 1 -12.8216 -1.24939 -15.4651 -12.8216 -1.24939 -15.4651
6303 1 -12.138 -2.29578 -14.8333 -12.138 -2.29578 18.824
914 1 -10.7304 -3.1877 -14.5391 -10.7304 -3.1877 -14.5391
12912 1 -9.4222 -0.959093 -14.5782 24.2351 -0.959093 19.079
8616 1 -9.33317 -3.57585 -15.2878 -9.33317 -3.57585 -15.2878
9303 1 -8.41813 -1.87725 -14.3902 25.2391 -1.87725 -14.3902
4345 1 -7.09243 -2.39214 -14.9444 -7.09243 -2.39214 -14.9444
5385 1 -4.22839 -1.59787 -15.5108 -4.22839 -1.59787 -15.5108
86 1 -4.68487 -1.20096 -14.2701 -4.68487 -1.20096 -14.2701
4691 1 -3.13907 -2.83253 -13.6986 -3.13907 -2.83253 -13.6986
14637 1 -3.40061 -1.63357 -14.4779 -3.40061 -1.63357 -14.4779
2142 1 -1.68083 -1.46336 -15.4534 -1.68083 -1.46336 18.2039
4522 1 -2.92208 -2.45976 -15.3476 -2.92208 -2.45976 -15.3476
5834 1 -1.02722 -1.69917 -13.3924 -1.02722 -1.69917 -13.3924
5941 1 -1.62091 -2.22706 -16.3525 -1.62091 -2.22706 -16.3525
7227 1 -8.99069 -4.92379 -15.5436 -8.99069 -4.92379 -15.5436
5094 1 -15.2761 -1.11842 -14.4567 -15.2761 -1.11842 -14.4567
9266 1 -12.9906 -0.585493 -14.39 20.6666 -0.585493 -14.39
13678 1 -11.0145 -0.908214 -14.037 -11.0145 -0.908214 -14.037
5419 1 -11.4234 -1.43799 -15.6032 -11.4234 -1.43799 -15.6032
1882 1 -7.04005 -1.28046 -14.5307 -7.04005 -1.28046 -14.5307
5740 1 -8.61463 -0.110998 -15.3632 -8.61463 -0.110998 -15.3632
6851 1 -5.88146 -0.493118 -14.3218 -5.88146 -0.493118 19.3355
1093 1 -3.84962 -0.661272 -16.3786 -3.84962 -0.661272 -16.3786
5528 1 -4.75453 -0.402827 -14.9391 -4.75453 -0.402827 -14.9391
3747 1 -2.30495 -0.358556 -15.074 -2.30495 -0.358556 18.5832
8361 1 -0.564567 -0.811357 -14.8344 -0.564567 -34.4686 -14.8344
11163 1 -0.0517455 -0.544 -13.6876 -0.0517455 -0.544 19.9697
1810 1 -15.6917 -15.5345 -12.9169 -15.6917 -15.5345 -12.9169
9308 1 -14.6092 -16.5995 -13.0908 19.048 -16.5995 -13.0908
4152 1 -14.7962 -16.1031 -12.0801 -14.7962 17.5542 -12.0801
1290 1 -13.3829 -15.8691 -13.2217 -13.3829 -15.8691 -13.2217
12083 1 -16.416 -8.68717 -3.23499 17.2412 -8.68717 -3.23499
3110 1 -9.54443 -15.4521 -13.4076 -9.54443 -15.4521 20.2497
462 1 -8.15002 -16.4492 -12.8578 -8.15002 -16.4492 -12.8578
6369 1 -8.29581 -14.9107 -13.3941 -8.29581 18.7465 20.2631
1968 1 -6.34351 -16.2102 -13.6359 -6.34351 -16.2102 -13.6359
6769 1 -5.39825 -16.7682 -14.2734 -5.39825 -16.7682 19.3839
7854 1 -3.02088 -16.5612 -13.1658 -3.02088 17.0961 20.4915
3335 1 -0.558439 -16.0636 -13.3609 -0.558439 -16.0636 -13.3609
8261 1 -2.11688 -15.46 -13.3946 31.5404 -15.46 -13.3946
8265 1 -7.14019 -6.88679 -16.5988 -7.14019 -6.88679 -16.5988
9236 1 -15.1194 -14.1738 -11.9188 18.5378 -14.1738 -11.9188
7964 1 -16.1604 -6.66878 -15.9917 -16.1604 26.9885 17.6656
2429 1 -15.8379 -15.8703 -14.2334 -15.8379 -15.8703 19.4238
1924 1 -13.3914 -14.2085 -13.1219 -13.3914 -14.2085 -13.1219
7746 1 -14.4897 -13.2841 -12.5967 -14.4897 -13.2841 21.0606
13957 1 -12.2094 -13.3483 -12.6485 21.4478 20.309 -12.6485
14445 1 -10.5499 -15.4002 -13.0257 23.1073 18.2571 20.6315
4124 1 -10.1732 -14.0503 -13.1536 -10.1732 19.6069 -13.1536
4794 1 -10.5378 -13.1138 -12.1473 -10.5378 20.5435 -12.1473
14259 1 -10.8755 -14.3973 -12.4459 22.7817 19.2599 -12.4459
1743 1 -7.99422 -15.6371 -12.2069 -7.99422 -15.6371 -12.2069
472 1 -7.28358 -15.1643 -14.3113 -7.28358 -15.1643 -14.3113
727 1 -5.00381 -15.1769 -12.605 -5.00381 -15.1769 -12.605
5700 1 -4.12125 -15.2263 -13.9938 -4.12125 18.4309 -13.9938
589 1 -5.24432 -14.1996 -12.9182 -5.24432 -14.1996 -12.9182
12351 1 -1.71344 -14.5197 -13.2411 31.9438 19.1375 -13.2411
1798 1 -1.1455 -7.0442 -16.3875 -1.1455 -7.0442 -16.3875
12143 1 -0.815541 -14.7254 -14.0072 -0.815541 -14.7254 19.65
11146 1 -16.0071 -13.953 -13.0389 17.6502 -13.953 20.6183
15396 1 -13.942 -12.7142 -13.5925 19.7153 20.9431 20.0648
8850 1 -11.418 -13.2952 -13.6653 22.2392 -13.2952 -13.6653
5136 1 -8.20064 -13.313 -12.051 -8.20064 20.3443 -12.051
5217 1 -6.76879 -13.9802 -13.3966 -6.76879 19.6771 -13.3966
13962 1 -5.93074 -13.3705 -14.2462 27.7265 -13.3705 -14.2462
5388 1 -5.93209 -13.4202 -12.3584 -5.93209 20.2371 -12.3584
3683 1 -4.80423 -12.5455 -12.3949 -4.80423 -12.5455 21.2624
3482 1 -2.78409 -14.2645 -12.8076 -2.78409 19.3927 20.8497
9890 1 -2.41647 -12.6545 -12.8505 -2.41647 -12.6545 -12.8505
9859 1 -1.84629 -13.1273 -14.5195 -1.84629 -13.1273 -14.5195
14581 1 -0.758537 -13.2328 -13.2355 -0.758537 20.4245 -13.2355
8734 1 -16.3343 -11.758 -12.8922 17.323 -11.758 -12.8922
11865 1 -15.6568 -10.8131 -12.1014 18.0004 -10.8131 21.5559
10488 1 -15.1324 -12.0373 -14.919 18.5249 21.62 18.7383
14266 1 -15.3087 -11.6638 -13.3624 18.3486 21.9934 -13.3624
12677 1 -12.8082 -12.4554 -12.4612 20.8491 21.2018 -12.4612
10172 1 -13.0397 -11.8415 -14.3257 20.6176 -11.8415 -14.3257
10492 1 -11.0286 -12.0989 -13.7194 22.6287 -12.0989 19.9378
336 1 -7.59687 -13.2717 -13.4866 -7.59687 -13.2717 -13.4866
5290 1 -6.86386 -11.8826 -13.116 -6.86386 -11.8826 -13.116
951 1 -6.03165 -12.4355 -12.8507 -6.03165 -12.4355 -12.8507
6994 1 -5.4081 -10.739 -13.3131 -5.4081 -10.739 20.3442
13517 1 -3.75051 -10.8974 -13.6273 -3.75051 22.7598 -13.6273
6174 1 -2.24687 -11.0483 -14.6145 -2.24687 -11.0483 19.0428
4680 1 -1.07209 -12.2796 -13.515 -1.07209 21.3777 -13.515
3063 1 -10.754 -15.4276 -16.4079 -10.754 -15.4276 17.2493
15631 1 -15.8247 -9.24703 -13.9873 17.8325 24.4102 19.67
1717 1 -16.4707 -0.170252 -3.51109 -16.4707 -33.8275 -37.1683
849 1 -14.867 -10.3156 -13.0845 -14.867 -10.3156 -13.0845
6302 1 -13.4472 -10.495 -13.3335 -13.4472 23.1623 -13.3335
5986 1 -12.4479 -8.97495 -14.133 -12.4479 -8.97495 -14.133
1444 1 -12.6116 -10.8141 -12.1557 -12.6116 -10.8141 -12.1557
767 1 -11.5069 -12.2925 -14.7213 -11.5069 -12.2925 -14.7213
12935 1 -12.0376 -11.0696 -12.9455 21.6197 -11.0696 -12.9455
11712 1 -9.041 -10.8056 -13.9116 24.6163 -10.8056 19.7457
3618 1 -6.72874 -10.6113 -13.0896 -6.72874 -10.6113 20.5677
4581 1 -2.8652 -10.238 -12.6845 -2.8652 -10.238 -12.6845
7279 1 -1.79673 -10.0563 -14.2458 -1.79673 -10.0563 -14.2458
3298 1 -1.34917 -10.884 -13.0012 -1.34917 -10.884 20.656
9183 1 -0.595838 -11.0138 -14.32 -0.595838 -11.0138 -14.32
5994 1 -15.7914 -9.55841 -12.4002 -15.7914 24.0988 -12.4002
10043 1 -14.6779 -8.57235 -13.7821 18.9794 -8.57235 -13.7821
4852 1 -11.7063 -10.0141 -13.5522 -11.7063 23.6432 -13.5522
5720 1 -10.737 -11.0004 -14.4642 -10.737 22.6568 -14.4642
12587 1 -11.6966 -8.93187 -13.2543 21.9607 -8.93187 -13.2543
740 1 -10.3964 -8.9667 -14.0724 -10.3964 -8.9667 -14.0724
3061 1 -8.73008 -9.95217 -12.8 -8.73008 -9.95217 20.8573
1711 1 -7.90743 -8.18741 -12.369 -7.90743 -8.18741 -12.369
1687 1 -6.7656 -9.2873 -13.4784 -6.7656 -9.2873 -13.4784
5155 1 -6.45083 -8.14836 -13.2085 -6.45083 25.5089 -13.2085
1017 1 -5.10197 -8.20482 -12.4884 -5.10197 -8.20482 -12.4884
10528 1 -1.24149 -8.55256 -14.4962 -1.24149 -8.55256 19.1611
7070 1 -3.83114 -8.46224 -12.8351 -3.83114 -8.46224 20.8222
12340 1 -2.07286 -9.57154 -12.7414 -2.07286 -9.57154 20.9159
4796 1 -0.84394 -9.83632 -13.2836 -0.84394 -9.83632 -13.2836
6772 1 -16.6057 -7.2027 -15.0563 -16.6057 -7.2027 18.601
15275 1 -14.5715 -7.3756 -13.091 19.0858 -7.3756 20.5662
8500 1 -16.1626 -8.26302 -14.61 17.4947 -8.26302 -14.61
1910 1 -13.4887 -8.24134 -11.7799 -13.4887 -8.24134 -11.7799
12226 1 -12.333 -7.75799 -13.7984 -12.333 -7.75799 19.8589
2736 1 -8.92252 -5.96925 -13.3615 -8.92252 -5.96925 20.2958
10003 1 -10.815 -7.02633 -13.3058 22.8423 -7.02633 -13.3058
11445 1 -7.45646 -7.60908 -13.2342 26.2008 -7.60908 20.423
13632 1 -5.51622 -6.66634 -13.2002 -5.51622 -6.66634 -13.2002
995 1 -2.5314 -8.39944 -13.9889 -2.5314 -8.39944 -13.9889
11182 1 -1.09774 -7.86786 -13.3487 -1.09774 -7.86786 20.3085
797 1 -2.6275 -7.76741 -12.8434 -2.6275 -7.76741 -12.8434
16141 1 -15.2787 -10.0919 -16.5878 18.3786 -10.0919 17.0694
9927 1 -15.9714 -5.80434 -13.6056 17.6859 -5.80434 -13.6056
12159 1 -13.3397 -6.4966 -13.1596 -13.3397 -6.4966 20.4976
5279 1 -14.0007 -5.87258 -13.5877 -14.0007 -5.87258 -13.5877
8524 1 -12.4981 -6.38027 -14.3516 21.1592 -6.38027 -14.3516
793 1 -10.9389 -5.92971 -13.0907 -10.9389 -5.92971 -13.0907
741 1 -10.126 -5.60505 -14.0573 -10.126 -5.60505 -14.0573
12350 1 -7.38155 -5.80024 -14.5201 -7.38155 27.857 -14.5201
618 1 -7.55245 -6.38761 -12.999 26.1048 -6.38761 -12.999
4172 1 -6.42828 -6.45745 -12.3703 -6.42828 27.1998 -12.3703
14616 1 -5.87217 -4.73309 -14.583 -5.87217 -4.73309 19.0742
1578 1 -4.54867 -6.43516 -14.0916 -4.54867 -6.43516 -14.0916
9126 1 -4.84582 -6.00627 -12.0576 -4.84582 -6.00627 -12.0576
2324 1 -3.38622 -7.67406 -13.8879 -3.38622 -7.67406 19.7694
2117 1 -3.58578 -5.26602 -13.6354 -3.58578 -5.26602 -13.6354
1702 1 -1.51296 -5.42953 -13.9412 -1.51296 -5.42953 -13.9412
15681 1 -0.218262 -6.94819 -12.9627 -0.218262 -6.94819 20.6946
13561 1 -3.21114 -15.6778 -0.124662 -3.21114 17.9795 -0.124662
12580 1 -15.0612 -5.10739 -12.4977 -15.0612 -5.10739 -12.4977
9529 1 -15.4654 -4.08753 -12.0009 18.1918 -4.08753 -12.0009
7056 1 -13.5923 -4.63543 -12.6699 -13.5923 -4.63543 20.9873
3763 1 -11.2606 -5.1242 -13.91 -11.2606 -5.1242 19.7472
8179 1 -10.3982 -5.14019 -12.4239 -10.3982 -5.14019 21.2334
2264 1 -9.527 -4.68898 -12.7383 -9.527 -4.68898 20.919
22 1 -8.44034 -5.02444 -12.6563 -8.44034 -5.02444 -12.6563
4205 1 -6.88215 -4.16406 -13.4676 -6.88215 29.4932 -13.4676
1408 1 -5.86935 -3.94027 -13.3672 -5.86935 -3.94027 -13.3672
3130 1 -4.07184 -3.76094 -13.1444 -4.07184 -3.76094 20.5129
9950 1 -3.05954 -6.23477 -12.6758 -3.05954 -6.23477 -12.6758
10824 1 -2.31355 -4.97978 -13.1152 -2.31355 -4.97978 20.5421
10014 1 -0.722537 -5.0144 -13.0365 -0.722537 -5.0144 -13.0365
13423 1 -16.1333 -3.6852 -13.1605 17.524 -3.6852 -13.1605
4176 1 -14.4623 -4.20268 -13.5958 -14.4623 -4.20268 -13.5958
8744 1 -12.473 -2.87438 -13.6056 21.1842 -2.87438 -13.6056
8224 1 -12.4232 -4.95254 -12.3794 21.2341 -38.6098 -12.3794
15602 1 -10.485 -3.82961 -12.3314 23.1722 -3.82961 21.3259
11676 1 -8.60912 -3.27419 -14.0781 25.0481 -3.27419 19.5791
1032 1 -7.96291 -2.60981 -13.3608 -7.96291 -2.60981 -13.3608
324 1 -6.08519 -2.56518 -13.6612 -6.08519 -2.56518 -13.6612
1590 1 -4.76813 -4.94896 -13.7611 -4.76813 -4.94896 -13.7611
16068 1 -4.80824 -2.71493 -14.1967 28.849 -2.71493 -14.1967
6725 1 -2.83176 -2.48488 -12.5336 -2.83176 -2.48488 21.1237
9673 1 -1.35075 -3.77383 -12.9993 -1.35075 -3.77383 -12.9993
5210 1 -0.576047 -3.961 -12.2773 -0.576047 29.6963 -12.2773
13677 1 -0.470802 -2.9056 -13.7557 -0.470802 30.7517 -13.7557
12427 1 -14.7834 -2.36041 -13.5284 18.8739 -2.36041 -13.5284
4452 1 -13.6492 -2.21017 -12.5215 -13.6492 -2.21017 -12.5215
5178 1 -10.7288 -2.55227 -13.1847 -10.7288 -2.55227 -13.1847
1763 1 -9.36075 -2.62983 -13.6822 -9.36075 -2.62983 -13.6822