ITEM: TIMESTEP
4500
ITEM: NUMBER OF ATOMS
16384
ITEM: BOX BOUNDS pp pp pp
-1.6828627036276380e+01 1.6828627036276380e+01
-1.6828627036276380e+01 1.6828627036276380e+01
-1.6828627036276380e+01 1.6828627036276380e+01
ITEM: ATOMS id type x y z xu yu zu
5975 1 -16.7108 -15.518 -15.7287 -16.7108 18.1393 -15.7287
671 1 -14.6666 -16.4387 -15.6155 -14.6666 -16.4387 -15.6155
554 1 -13.1172 -16.2367 -15.2858 -13.1172 -16.2367 -15.2858
15029 1 -12.9761 -16.0585 -16.2968 -12.9761 -16.0585 17.3604
8046 1 -12.022 -15.7953 -15.4472 -12.022 17.862 18.21
1497 1 -9.15529 -15.7524 -16.5347 -9.15529 -15.7524 -16.5347
7332 1 -8.29049 -16.2722 -16.2749 -8.29049 17.3851 17.3823
8500 1 -16.5702 -6.90101 -14.5971 17.087 -6.90101 -14.5971
2213 1 -0.0357776 -9.97383 -5.08941 -33.693 -9.97383 -5.08941
14054 1 -4.19181 -16.8175 -16.4632 -4.19181 16.8397 -16.4632
10321 1 -2.95087 -16.6877 -15.9352 -2.95087 -16.6877 17.722
8013 1 -16.4506 -11.9673 -2.4756 -16.4506 21.6899 -2.4756
12571 1 -2.01621 -16.55 -15.3684 -2.01621 17.1073 -15.3684
12369 1 -2.97491 -16.1904 -9.04535 -2.97491 17.4669 -9.04535
5937 1 -0.95528 -15.3735 -15.5052 -0.95528 18.2837 -15.5052
11649 1 -15.6937 -14.5809 -16.4572 17.9635 -14.5809 17.2
469 1 -13.928 -14.3136 -16.0735 -13.928 -14.3136 -16.0735
15107 1 -13.3214 -15.1852 -15.4418 20.3359 -15.1852 18.2154
10905 1 -14.2886 -16.4896 -4.11823 19.3687 -16.4896 -4.11823
3063 1 -12.3795 -14.6278 -14.6088 -12.3795 -14.6278 19.0484
15064 1 -10.798 -14.0642 -15.0954 22.8592 -14.0642 18.5619
4514 1 -9.74672 -15.0377 -15.8026 -9.74672 18.6195 -15.8026
4294 1 -5.69786 -0.09743 -9.40896 -5.69786 -0.09743 -9.40896
5620 1 -5.88852 -0.257566 -1.59476 -5.88852 -0.257566 -1.59476
5100 1 -7.78084 -14.7507 -15.502 -7.78084 18.9065 -15.502
2561 1 -6.23179 -14.3732 -16.6671 -6.23179 -14.3732 16.9902
7538 1 -5.51587 -15.6839 -16.2365 -5.51587 17.9733 17.4208
2471 1 -5.29638 -14.0022 -15.8787 -5.29638 -14.0022 17.7786
12146 1 -4.19199 -14.1796 -16.3022 -4.19199 -14.1796 17.3551
8260 1 -3.09064 -14.8272 -16.4041 -3.09064 -14.8272 -16.4041
8060 1 -5.0146 -1.09391 -0.432441 -5.0146 -1.09391 -0.432441
15279 1 -1.20376 -14.9083 -16.6493 -1.20376 18.749 17.008
2765 1 -0.325178 -0.411535 -0.570862 -0.325178 -0.411535 -0.570862
6579 1 -13.3874 -12.9812 -16.6033 -13.3874 20.6761 17.054
8100 1 -11.8474 -14.0362 -15.693 -45.5046 19.621 17.9643
3112 1 -11.5916 -12.8188 -16.4573 -11.5916 -12.8188 17.1999
11190 1 -10.0204 -12.5012 -16.2351 -10.0204 -12.5012 17.4221
9137 1 -9.28735 -13.84 -15.8784 -9.28735 -13.84 -15.8784
9435 1 -7.84139 -13.4277 -15.4503 25.8159 -13.4277 -15.4503
4665 1 -8.72083 -12.1259 -15.7956 -8.72083 21.5314 -15.7956
3127 1 -6.37129 -13.9014 -15.505 -6.37129 -13.9014 18.1523
6673 1 -3.22502 -0.488107 -15.5731 -3.22502 -0.488107 18.0841
9383 1 -2.96435 -13.4333 -16.2731 -2.96435 -13.4333 -16.2731
9099 1 -1.33341 -13.3766 -16.151 -1.33341 -13.3766 -16.151
8878 1 -0.18251 -14.361 -16.7693 -0.18251 -14.361 16.888
1108 1 -16.182 -12.6611 -16.4696 -16.182 -12.6611 -16.4696
1978 1 -14.1087 -12.5209 -15.6682 -14.1087 -12.5209 -15.6682
10488 1 -15.4893 -11.7581 -15.9249 18.1679 21.8992 17.7324
15539 1 -0.505868 -0.181504 -6.76325 -0.505868 -0.181504 26.894
4219 1 -12.7791 -11.7493 -15.2282 -12.7791 21.9079 -15.2282
3519 1 -12.2476 -11.7889 -16.4663 -12.2476 -11.7889 17.1909
5720 1 -10.7248 -12.1048 -15.1818 -10.7248 21.5525 -15.1818
4235 1 -9.83025 -11.5387 -15.5979 -9.83025 22.1185 18.0593
9429 1 -11.9202 -0.700123 -14.357 21.737 -34.3574 -14.357
2426 1 -5.78772 -11.7718 -15.6175 -5.78772 -11.7718 18.0398
8402 1 -5.42963 -12.9076 -15.4325 -5.42963 -12.9076 -15.4325
1925 1 -4.68299 -12.493 -16.237 -4.68299 -12.493 -16.237
8255 1 -3.71554 -12.5487 -15.9764 -3.71554 -12.5487 -15.9764
6275 1 -4.03005 -11.0083 -15.9883 -4.03005 -11.0083 -15.9883
642 1 -2.20973 -12.0746 -16.2831 -2.20973 -12.0746 -16.2831
6944 1 -2.50166 -11.3879 -15.4831 -2.50166 22.2693 18.1742
394 1 -16.6314 -9.83559 -15.9957 -16.6314 -9.83559 -15.9957
3649 1 -13.9476 -11.3883 -15.7893 -13.9476 -11.3883 17.868
14365 1 -15.703 -16.6199 -8.08399 17.9542 17.0374 25.5733
1175 1 -11.5762 -9.83291 -16.3189 -11.5762 -9.83291 -16.3189
2341 1 -11.3011 -11.0074 -16.1748 -11.3011 -11.0074 17.4824
6523 1 -8.89579 -10.5292 -15.2334 -8.89579 23.1281 18.4238
11870 1 -12.4382 -16.5969 -4.02121 -12.4382 -16.5969 -4.02121
6529 1 -7.76152 -10.6137 -15.8593 -7.76152 -10.6137 17.7979
1537 1 -6.64506 -10.8565 -15.6084 -6.64506 -10.8565 -15.6084
8767 1 -13.0224 -16.6343 -12.671 20.6348 -16.6343 -12.671
8083 1 -5.38951 -10.7007 -15.5758 -5.38951 -10.7007 18.0815
11149 1 -4.13012 -9.54109 -15.2282 -4.13012 -9.54109 18.429
6174 1 -1.83657 -10.5902 -16.6072 -1.83657 -10.5902 17.05
8484 1 -4.79245 -0.171953 -2.30221 -4.79245 -0.171953 -2.30221
4007 1 -16.4716 -7.8825 -15.4373 -16.4716 -7.8825 18.22
16141 1 -15.6241 -9.21545 -15.9551 18.0332 -9.21545 17.7022
53 1 -13.6497 -9.11975 -16.6172 -13.6497 -42.777 -16.6172
13617 1 -12.264 -8.20608 -16.3298 -12.264 25.4512 -16.3298
808 1 -11.0454 -8.96559 -15.7987 -11.0454 -8.96559 -15.7987
503 1 -10.0901 -9.81411 -15.4621 -10.0901 -9.81411 -15.4621
1760 1 -7.39048 -9.34416 -15.6823 -7.39048 -9.34416 -15.6823
4295 1 -6.10208 -9.26621 -15.9199 -6.10208 -9.26621 -15.9199
3889 1 -3.98886 -8.72664 -16.3251 -3.98886 -8.72664 -16.3251
12244 1 -2.11923 -9.48072 -16.8451 31.538 -9.48072 16.8121
616 1 -0.467476 -9.23885 -15.8956 -0.467476 -9.23885 -15.8956
9970 1 -5.48311 -7.65537 -0.148152 -5.48311 -7.65537 -0.148152
6772 1 -15.5783 -6.99693 -15.6525 -15.5783 -6.99693 18.0048
12192 1 -14.7292 -8.50533 -16.4417 18.9281 -8.50533 17.2156
12522 1 -12.4757 -7.04343 -15.9197 -12.4757 -7.04343 -15.9197
1438 1 -9.5249 -7.72795 -15.3007 -9.5249 -7.72795 -15.3007
4034 1 -11.19 -8.15586 -16.7593 -11.19 -8.15586 16.898
8709 1 -10.6768 -7.17513 -16.4406 -10.6768 -7.17513 -16.4406
12503 1 -8.53584 -7.86224 -15.5929 25.1214 25.795 -15.5929
4715 1 -7.47851 -7.34628 -15.862 -7.47851 26.311 -15.862
8503 1 -6.29873 -7.76076 -15.96 -6.29873 -7.76076 -15.96
1368 1 -4.13857 -16.3456 -2.3458 -4.13857 17.3117 -2.3458
11078 1 -3.19422 -7.58972 -16.3559 -3.19422 -7.58972 17.3013
11584 1 -4.40144 -8.25698 -15.3722 -4.40144 -8.25698 18.2851
9002 1 -1.75784 -7.56443 -15.8749 -1.75784 -7.56443 -15.8749
3832 1 -5.30423 -5.10574 -16.5342 -5.30423 -5.10574 17.1231
2006 1 0.00647889 -0.364595 -7.95573 0.00647889 -0.364595 -7.95573
2623 1 -14.4637 -7.2493 -15.5188 -14.4637 -7.2493 18.1384
6319 1 -14.2784 -5.7334 -16.3144 -14.2784 27.9239 17.3429
14935 1 -13.3547 -6.6302 -14.9711 -13.3547 -6.6302 18.6862
2010 1 -13.1863 -6.46625 -16.4118 -13.1863 -6.46625 -16.4118
14402 1 -11.8369 -6.29322 -15.3423 21.8203 -6.29322 18.3149
2611 1 -11.279 -7.56308 -15.48 -11.279 -7.56308 18.1773
1639 1 -10.075 -6.64715 -15.6757 -10.075 -6.64715 -15.6757
9102 1 -6.61463 -6.36521 -16.0679 -6.61463 -6.36521 -16.0679
4995 1 -8.45485 -6.56562 -15.8526 -8.45485 -6.56562 -15.8526
4656 1 -13.1176 -0.000861072 -8.26173 -13.1176 -0.000861072 -8.26173
1481 1 -5.31382 -6.45858 -15.9491 -5.31382 -6.45858 -15.9491
11381 1 -4.19339 -7.17934 -15.7987 29.4639 -7.17934 17.8586
9818 1 -11.3979 -16.4447 -14.3242 22.2594 -16.4447 -14.3242
12289 1 -1.47532 -6.39071 -15.8137 -1.47532 27.2665 17.8435
5386 1 -2.85593 -5.28269 -15.9943 -2.85593 28.3746 -15.9943
11346 1 -8.4737 -0.324519 -9.66901 25.1836 -0.324519 -9.66901
1798 1 -1.09869 -5.40586 -14.7282 -1.09869 -5.40586 -14.7282
323 1 -15.6345 -3.94951 -15.9867 -15.6345 -3.94951 -15.9867
4824 1 -9.40911 -0.00608908 -12.2531 -9.40911 -0.00608908 -12.2531
10961 1 -1.47027 -8.22969 -16.6898 -1.47027 -8.22969 16.9675
1953 1 -15.315 -5.34175 -16.6522 -15.315 -5.34175 -16.6522
3029 1 -13.5545 -4.99747 -15.6556 -13.5545 -4.99747 18.0017
7227 1 -10.0319 -5.76697 -16.4246 -10.0319 -5.76697 -16.4246
4724 1 -11.0278 -4.42193 -16.0268 -11.0278 -4.42193 -16.0268
12218 1 -7.81987 -4.77246 -15.7316 -7.81987 -4.77246 17.9256
1094 1 -7.10716 -5.52873 -16.621 -7.10716 -5.52873 -16.621
5320 1 -5.9219 -4.82802 -15.7965 -5.9219 -4.82802 -15.7965
6214 1 -4.14876 -4.99171 -16.0887 -4.14876 -4.99171 17.5685
1169 1 -1.46101 -5.25863 -16.3787 -1.46101 -5.25863 -16.3787
11978 1 -2.14934 -4.57916 -15.4898 -2.14934 -4.57916 18.1674
11310 1 -0.715778 -4.49901 -16.0377 -0.715778 -38.1563 17.6196
2277 1 -5.45475 -13.0167 -0.341528 -5.45475 -13.0167 -0.341528
10751 1 -15.3575 -2.60562 -15.7996 18.2997 -2.60562 17.8576
3468 1 -14.3075 -3.36629 -15.5203 -14.3075 -3.36629 18.137
9678 1 -12.2127 -3.70656 -15.8945 21.4446 -3.70656 -15.8945
13690 1 -11.3996 -2.8866 -15.8612 22.2577 -2.8866 -15.8612
1589 1 -8.83438 -3.78433 -15.7252 -8.83438 -3.78433 -15.7252
5248 1 -5.65336 -2.54004 -15.7654 -5.65336 -2.54004 -15.7654
4321 1 -7.1712 -3.90378 -15.6116 -7.1712 -3.90378 -15.6116
1282 1 -9.38156 -0.087918 -7.68613 -9.38156 -0.087918 -7.68613
1690 1 -4.75931 -3.22876 -15.5708 -4.75931 -3.22876 -15.5708
10574 1 -3.33582 -3.52582 -15.9157 -3.33582 -3.52582 17.7415
13292 1 -2.32248 -3.89432 -16.4773 -2.32248 -3.89432 -16.4773
2049 1 -2.44912 -2.50286 -16.1839 -2.44912 -2.50286 17.4734
7275 1 -1.50051 -3.37386 -16.1406 -1.50051 30.2834 17.5166
4094 1 -16.2617 -1.87315 -16.3316 -16.2617 -1.87315 -16.3316
11013 1 -13.425 -1.84901 -16.6514 20.2322 -1.84901 17.0059
4648 1 -12.1616 -2.02088 -16.8292 -12.1616 -2.02088 -16.8292
2303 1 -13.1953 -2.83955 -15.8975 -13.1953 -2.83955 17.7598
1745 1 -0.346752 -12.776 -0.47604 -0.346752 -12.776 -0.47604
16122 1 -10.3182 -2.69651 -16.5649 -10.3182 -2.69651 17.0924
10 1 -7.01105 -2.74897 -16.0981 -7.01105 -2.74897 -16.0981
888 1 -5.87047 -16.6527 -4.20655 -5.87047 -16.6527 -4.20655
4345 1 -7.63314 -1.49806 -15.0148 -7.63314 -1.49806 -15.0148
160 1 -4.54872 -2.52646 -16.855 -4.54872 -2.52646 -16.855
4522 1 -3.79711 -2.55779 -15.4788 -3.79711 -2.55779 -15.4788
13191 1 -0.282542 -2.85813 -16.3817 -0.282542 -2.85813 17.2756
7181 1 -16.1072 -0.957732 -15.7728 -16.1072 -0.957732 -15.7728
4973 1 -14.6265 -0.885974 -16.1648 -14.6265 -0.885974 -16.1648
4349 1 -12.7361 -1.19817 -15.6245 -12.7361 -1.19817 -15.6245
7984 1 -11.3214 -0.52127 -16.0108 -11.3214 33.136 17.6465
6485 1 -10.146 -0.298752 -15.5105 -10.146 33.3585 18.1467
12420 1 -8.84435 -0.286491 -16.0367 24.8129 -0.286491 -16.0367
7703 1 -7.7626 -0.534998 -15.9409 -7.7626 -0.534998 17.7163
5308 1 -5.37487 -1.74162 -16.6438 -5.37487 -1.74162 -16.6438
5383 1 -6.25309 -0.340792 -15.6722 -6.25309 -0.340792 -15.6722
1608 1 -5.96306 -14.3125 -0.957658 -5.96306 -14.3125 -0.957658
5528 1 -4.19207 -1.11438 -16.0876 -4.19207 -1.11438 -16.0876
5941 1 -2.32483 -1.50301 -15.7838 -2.32483 -1.50301 -15.7838
3802 1 -1.7661 -0.790033 -16.5296 -1.7661 -0.790033 17.1276
1119 1 -0.361131 -0.777857 -16.4538 -0.361131 -0.777857 -16.4538
46 1 -0.889572 -0.856981 -15.1932 -0.889572 -0.856981 -15.1932
6965 1 -16.1419 -15.7904 -14.58 -16.1419 17.8668 19.0773
3622 1 -3.59371 -16.2986 -0.119251 -3.59371 -16.2986 -0.119251
2851 1 -14.3202 -15.816 -14.3702 -14.3202 -15.816 19.2871
12986 1 -12.4593 -15.9339 -14.2791 -12.4593 17.7233 -14.2791
6141 1 -0.196688 -7.03787 -4.18447 -0.196688 26.6194 -4.18447
7456 1 -10.6142 -15.7107 -15.4599 -10.6142 17.9465 -15.4599
74 1 -9.83908 -16.5742 -15.3699 -9.83908 -16.5742 -15.3699
472 1 -8.1779 -15.8884 -15.2547 -8.1779 -15.8884 -15.2547
8868 1 -6.92785 -15.8682 -15.7169 -6.92785 -15.8682 -15.7169
1968 1 -6.86734 -16.6826 -13.7812 -6.86734 -16.6826 -13.7812
11648 1 -5.49652 -16.0683 -14.7629 -5.49652 -16.0683 18.8944
6376 1 -4.40048 -16.4017 -15.2236 -4.40048 17.2555 18.4336
15663 1 -3.53024 -15.9368 -14.2065 30.127 17.7205 19.4508
9096 1 -2.50429 -15.4935 -14.3241 -2.50429 -15.4935 -14.3241
2354 1 -0.756415 -15.8216 -14.5451 -0.756415 -15.8216 19.1122
2372 1 -15.0832 -15.2222 -14.9755 -15.0832 -15.2222 18.6818
14882 1 -11.016 -14.9917 -14.5987 22.6413 18.6655 19.0586
4054 1 -9.05515 -14.4006 -14.9729 -9.05515 -14.4006 18.6844
523 1 -7.30229 -14.2715 -14.2174 -7.30229 -14.2715 -14.2174
16382 1 -5.58902 -15.0268 -14.7664 -5.58902 18.6304 -14.7664
5159 1 -3.19785 -13.996 -13.8188 -3.19785 19.6613 -13.8188
8669 1 -3.44566 -14.9981 -14.8051 -3.44566 -14.9981 -14.8051
8719 1 -2.49843 -14.0906 -15.435 -2.49843 -14.0906 -15.435
2126 1 -2.27412 -15.1266 -15.7989 -2.27412 -15.1266 17.8584
12351 1 -1.61248 -14.3606 -13.6376 32.0448 19.2967 -13.6376
1176 1 -15.6793 -14.1345 -14.1392 -15.6793 -14.1345 -14.1392
9415 1 -16.2025 -13.7716 -15.5091 17.4548 -13.7716 -15.5091
5296 1 -14.8576 -13.2428 -15.2843 -14.8576 20.4144 -15.2843
1924 1 -14.0556 -14.3455 -14.7436 -14.0556 -14.3455 -14.7436
3581 1 -13.4286 -13.5158 -15.1982 -13.4286 -13.5158 18.459
8786 1 -11.4186 -13.3152 -14.4155 22.2387 -13.3152 -14.4155
2488 1 -10.1348 -13.0934 -15.079 -10.1348 -13.0934 18.5782
7848 1 -8.41145 -13.2756 -14.1915 -8.41145 20.3816 19.4658
4147 1 -6.92145 -12.6005 -15.3199 -6.92145 21.0568 -15.3199
13962 1 -6.30888 -13.0184 -14.4726 27.3484 -13.0184 -14.4726
8173 1 -4.80093 -13.4299 -14.4983 -4.80093 20.2273 19.1589
357 1 -3.96472 -14.0006 -14.9971 -3.96472 -14.0006 -14.9971
8860 1 -4.49553 -12.6565 -13.7931 -4.49553 -12.6565 -13.7931
9433 1 -2.98323 -13.1864 -14.7712 -2.98323 -13.1864 -14.7712
9859 1 -1.96548 -12.4655 -15.2667 -1.96548 -12.4655 -15.2667
8540 1 -1.40125 -14.5782 -14.9538 -1.40125 -14.5782 -14.9538
9630 1 -0.50799 -14.1988 -13.9668 -0.50799 -14.1988 -13.9668
11606 1 -15.8007 -12.1444 -14.4907 17.8565 -12.1444 -14.4907
12827 1 -13.3903 -12.6372 -14.2483 -13.3903 21.0201 -14.2483
767 1 -12.0313 -12.7567 -15.2958 -12.0313 -12.7567 -15.2958
1251 1 -10.2227 -12.2836 -14.1328 -10.2227 21.3737 -14.1328
1331 1 -11.3519 -11.5823 -14.4176 -11.3519 -11.5823 -14.4176
13813 1 -8.98276 -12.0157 -14.5748 24.6745 21.6416 -14.5748
3722 1 -7.65761 -11.8508 -15.1819 -7.65761 -11.8508 18.4753
8036 1 -6.75203 -11.1782 -14.1437 -6.75203 22.479 19.5135
12016 1 -4.48585 -10.5247 -14.9802 -4.48585 -10.5247 18.6771
7644 1 -3.78565 -11.5485 -14.4467 -3.78565 22.1087 19.2105
4680 1 -1.40293 -12.5796 -14.1589 -1.40293 21.0776 -14.1589
9896 1 -0.832725 -12.3933 -15.0809 -0.832725 -12.3933 -15.0809
1375 1 -16.549 -10.3606 -14.6526 -16.549 -10.3606 -14.6526
12696 1 -15.6309 -10.821 -15.1453 18.0263 22.8363 -15.1453
13271 1 -13.9889 -10.0909 -14.9213 19.6684 23.5663 -14.9213
8215 1 -12.9383 -10.4126 -15.688 -12.9383 23.2446 17.9693
14478 1 -11.6574 -10.4864 -14.8623 21.9998 23.1708 -14.8623
733 1 -9.20832 -10.408 -14.1523 -9.20832 -10.408 -14.1523
7530 1 -8.10297 -9.68584 -14.8281 -8.10297 -9.68584 18.8292
10984 1 -7.4244 -10.2641 -13.9371 26.2329 -10.2641 19.7202
7037 1 -2.95947 -10.2267 -15.1318 -2.95947 23.4305 18.5255
3298 1 -1.30143 -10.4876 -15.4948 -1.30143 -10.4876 18.1625
7279 1 -0.936995 -9.09513 -13.5278 -0.936995 -9.09513 -13.5278
8831 1 -16.4835 -9.1916 -14.6777 17.1737 -9.1916 -14.6777
12056 1 -15.0831 -9.74346 -14.6268 -15.0831 -9.74346 19.0305
10043 1 -13.8608 -9.39841 -13.6416 19.7965 -9.39841 -13.6416
5025 1 -14.2359 -9.0953 -15.1282 -14.2359 -9.0953 -15.1282
5986 1 -12.15 -8.95958 -14.6574 -12.15 -8.95958 -14.6574
1536 1 -11.0708 -9.68287 -14.7418 -11.0708 -9.68287 -14.7418
2261 1 -9.02619 -8.73879 -14.8625 -9.02619 -8.73879 18.7947
9124 1 -7.89864 -8.70364 -13.882 -7.89864 -8.70364 -13.882
1305 1 -6.73956 -9.92395 -14.6778 -6.73956 -9.92395 -14.6778
751 1 -5.59197 -8.56191 -14.9242 -5.59197 -8.56191 -14.9242
4807 1 -4.67189 -8.83061 -14.3863 -4.67189 24.8266 -14.3863
13517 1 -3.09044 -9.55382 -14.1168 -3.09044 24.1034 -14.1168
8415 1 -2.40668 -8.89724 -15.8464 -2.40668 -8.89724 -15.8464
995 1 -1.61102 -9.909 -14.641 -1.61102 -9.909 -14.641
335 1 -15.2488 -7.73762 -14.6815 -15.2488 -7.73762 -14.6815
6982 1 -13.9733 -7.55106 -14.3174 -13.9733 -7.55106 19.3398
13798 1 -11.5975 -7.87879 -14.109 22.0597 25.7785 -14.109
12045 1 -13.3015 -8.73254 -14.9985 20.3558 -8.73254 18.6588
480 1 -10.3125 -8.07552 -14.6528 -10.3125 -8.07552 -14.6528
11538 1 -8.95616 -7.49441 -14.2726 24.7011 -7.49441 19.3846
1843 1 -7.42227 -7.43552 -14.6158 -7.42227 -7.43552 -14.6158
12283 1 -6.47132 -8.44724 -13.8994 -6.47132 -8.44724 19.7578
7366 1 -6.02595 -7.61341 -14.9411 -6.02595 -7.61341 18.7161
3004 1 -3.84054 -7.42009 -14.7883 -3.84054 -7.42009 18.869
7070 1 -2.3361 -8.41523 -14.4494 -2.3361 -8.41523 19.2079
5261 1 -0.673124 -8.61921 -15.1223 -0.673124 -8.61921 -15.1223
2324 1 -2.81374 -7.05066 -14.3834 -2.81374 -7.05066 19.2738
13260 1 -16.3565 -5.43925 -14.6547 17.3008 28.218 -14.6547
11112 1 -15.4962 -6.55503 -14.5998 18.1611 -6.55503 19.0575
6334 1 -12.342 -6.46779 -14.3839 -12.342 -6.46779 19.2733
8524 1 -11.4846 -5.45175 -14.1287 22.1727 -5.45175 -14.1287
3405 1 -10.5916 -6.43481 -14.523 -10.5916 -6.43481 19.1342
2873 1 -9.3637 -5.80119 -14.8845 -9.3637 -5.80119 18.7728
205 1 -8.79839 -5.11008 -14.0452 -8.79839 -5.11008 -14.0452
12350 1 -6.92904 -5.30449 -14.2604 -6.92904 28.3528 -14.2604
2185 1 -4.99256 -6.76612 -14.71 -4.99256 -6.76612 18.9472
8505 1 -3.33485 -6.11012 -15.1304 -3.33485 -6.11012 -15.1304
13080 1 -0.769163 -6.5012 -14.515 -0.769163 27.1561 -14.515
2250 1 -1.26372 -7.45941 -14.8788 -1.26372 -7.45941 18.7785
4711 1 -15.7561 -4.15997 -14.5153 -15.7561 29.4973 -14.5153
10069 1 -14.0654 -5.47177 -14.4114 19.5919 -5.47177 -14.4114
5522 1 -13.2549 -5.18534 -13.2887 -13.2549 -5.18534 -13.2887
3070 1 -12.1666 -5.02192 -15.618 -12.1666 -5.02192 18.0392
8616 1 -10.4844 -5.47251 -15.2379 -10.4844 -5.47251 -15.2379
11507 1 -9.75214 -4.45814 -15.4505 23.9051 -4.45814 18.2068
1975 1 -10.2313 -5.34772 -14.1261 -10.2313 -5.34772 -14.1261
8056 1 -7.8462 -6.19143 -15.1469 -7.8462 -6.19143 18.5103
4205 1 -6.76121 -3.89561 -14.5208 -6.76121 29.7616 -14.5208
14616 1 -6.12504 -5.91614 -14.9978 -6.12504 -5.91614 18.6595
2117 1 -4.23472 -4.11071 -15.1242 -4.23472 -4.11071 -15.1242
3130 1 -4.64541 -5.28389 -14.5789 -4.64541 -5.28389 19.0784
15509 1 -3.30514 -4.62124 -14.6864 -3.30514 -4.62124 18.9708
1625 1 -2.17334 -5.89727 -14.6738 -2.17334 -5.89727 -14.6738
1702 1 -1.61126 -4.45891 -14.2184 -1.61126 -4.45891 -14.2184
13987 1 -16.6849 -3.55719 -15.05 16.9723 -3.55719 -15.05
1894 1 -13.9414 -3.43993 -14.2695 -13.9414 -3.43993 -14.2695
15950 1 -14.7314 -4.45595 -15.3748 18.9258 -4.45595 18.2825
4789 1 -12.7921 -3.58791 -14.7658 -12.7921 -3.58791 -14.7658
9339 1 -12.9176 -4.67167 -14.4071 20.7396 -4.67167 -14.4071
914 1 -10.8722 -4.19968 -15.0195 -10.8722 -4.19968 -15.0195
11676 1 -9.33053 -2.66809 -14.3623 24.3267 -2.66809 19.2949
4597 1 -8.16122 -3.21428 -15.1105 -8.16122 -3.21428 -15.1105
3263 1 -6.17953 -3.02444 -14.1161 -6.17953 -3.02444 19.5412
621 1 -5.6402 -4.47118 -14.7274 -5.6402 -4.47118 -14.7274
13563 1 -1.86924 -3.26681 -14.927 -1.86924 -3.26681 -14.927
12615 1 -0.372571 -3.80039 -14.0988 -0.372571 29.8569 -14.0988
5094 1 -15.9929 -2.68272 -14.5944 -15.9929 -2.68272 -14.5944
9133 1 -12.4695 -2.45616 -15.1798 21.1877 -2.45616 -15.1798
6303 1 -10.9683 -1.49224 -16.0964 -10.9683 -1.49224 17.5608
15923 1 -9.98627 -3.38222 -14.9313 23.671 -3.38222 18.7259
5740 1 -9.95058 -2.23521 -15.5248 -9.95058 -2.23521 -15.5248
9756 1 -8.98352 -1.83046 -15.5712 24.6737 -35.4877 -15.5712
696 1 -6.52513 -2.11009 -14.8619 -6.52513 -2.11009 -14.8619
6646 1 -4.78442 -2.02946 -15.2219 -4.78442 -2.02946 18.4353
16068 1 -4.75722 -3.56931 -13.8515 28.9 -3.56931 -13.8515
4691 1 -3.40507 -3.3033 -14.64 -3.40507 -3.3033 -14.64
573 1 -3.02273 -1.69637 -15.0197 -3.02273 -1.69637 -15.0197
8716 1 -1.31913 -2.34035 -14.9112 -1.31913 -2.34035 -14.9112
12800 1 -0.0678262 -2.64294 -14.8612 -0.0678262 -2.64294 -14.8612
3878 1 -12.237 -16.6052 -0.0129861 -12.237 -16.6052 -0.0129861
4082 1 -15.0176 -0.6516 -15.0203 -15.0176 -0.6516 -15.0203
12386 1 -14.0072 -1.45137 -14.1294 19.65 -1.45137 -14.1294
1023 1 -13.0828 -0.378071 -14.9607 -13.0828 -0.378071 -14.9607
7877 1 -13.2255 -0.724008 -13.6616 -13.2255 -0.724008 19.9957
13678 1 -11.3635 -1.63347 -14.7135 -11.3635 -1.63347 -14.7135
5666 1 -10.4972 -1.07831 -14.6321 -10.4972 -1.07831 -14.6321
8824 1 -9.48673 -0.939255 -14.5318 -9.48673 -0.939255 -14.5318
12912 1 -9.35889 -0.388239 -13.2292 24.2984 -0.388239 20.4281
6430 1 -7.03956 -0.589707 -14.8073 -7.03956 -0.589707 18.85
6851 1 -5.54582 -1.10707 -14.7532 -5.54582 -1.10707 18.9041
9310 1 -16.5486 -7.52699 -0.331888 17.1087 -7.52699 -0.331888
14637 1 -3.93441 -1.51586 -14.666 -3.93441 -1.51586 -14.666
871 1 -0.378758 -15.8648 -1.3475 -0.378758 -15.8648 -1.3475
7424 1 -1.79187 -0.11162 -14.71 -1.79187 33.5456 18.9472
2936 1 -13.1224 -0.110308 -16.0588 -13.1224 -0.110308 17.5985
2429 1 -16.377 -16.2129 -12.8802 -16.377 -16.2129 20.777
9535 1 -14.6205 -15.9262 -13.3286 19.0368 -15.9262 -13.3286
9308 1 -15.4705 -15.6914 -12.2626 18.1867 -15.6914 -12.2626
15758 1 -12.5401 -15.7541 -13.0438 21.1172 17.9031 -13.0438
13845 1 -11.5625 -15.7454 -12.4781 22.0948 17.9119 -12.4781
7339 1 -16.7181 -13.9793 -1.68227 -16.7181 19.678 -1.68227
1171 1 -10.3367 -15.8241 -14.21 -43.9939 -15.8241 -14.21
462 1 -8.84266 -16.4412 -14.1404 -8.84266 -16.4412 -14.1404
3110 1 -9.28768 -15.8194 -12.5657 -9.28768 -15.8194 21.0916
934 1 -6.93616 -15.4446 -13.743 -6.93616 -15.4446 -13.743
773 1 -5.23478 -16.7701 -12.961 -5.23478 -16.7701 -12.961
14239 1 -1.19044 -15.9998 -13.3626 -1.19044 17.6574 -13.3626
13955 1 -16.6727 -14.2682 -13.3425 16.9845 19.389 -13.3425
761 1 -13.1209 -15.0982 -13.9021 -13.1209 -15.0982 -13.9021
11146 1 -15.1467 -15.0346 -13.9049 18.5105 -15.0346 19.7523
10007 1 -14.7895 -14.18 -13.0488 18.8677 -14.18 -13.0488
1290 1 -12.0551 -14.6881 -13.3321 -12.0551 -14.6881 -13.3321
14187 1 -10.9017 -14.1725 -13.079 22.7555 19.4847 -13.079
11325 1 -10.4962 -15.6406 -12.8706 23.1611 -15.6406 20.7867
6369 1 -9.43266 -15.2328 -14.5643 -9.43266 18.4244 19.0929
336 1 -8.51065 -15.0175 -13.5333 -8.51065 -15.0175 -13.5333
5916 1 -5.63754 -15.4369 -13.7577 -5.63754 18.2204 -13.7577
5217 1 -5.714 -14.2449 -13.5858 -5.714 19.4123 -13.5858
589 1 -5.50812 -14.6241 -12.274 -5.50812 -14.6241 -12.274
10691 1 -4.25431 -13.8874 -13.5945 29.4029 -13.8874 20.0627
5700 1 -4.45003 -15.4674 -13.5929 -4.45003 18.1898 -13.5929
1814 1 -3.06807 -15.2393 -13.4902 -3.06807 -15.2393 -13.4902
3335 1 -0.112763 -15.3596 -13.5692 -0.112763 -15.3596 -13.5692
14581 1 -0.0537088 -14.5831 -12.4886 -0.0537088 19.0741 -12.4886
2399 1 -15.781 -13.0106 -13.1126 -15.781 -13.0106 20.5447
15396 1 -15.0941 -13.1817 -14.1232 18.5632 20.4756 19.5341
7900 1 -12.7647 -13.7627 -13.805 -12.7647 19.8945 19.8523
1740 1 -13.8224 -13.2129 -12.7956 19.8348 -13.2129 -12.7956
13957 1 -11.1712 -13.134 -13.3578 22.486 20.5233 -13.3578
8850 1 -9.45302 -12.9169 -13.3258 24.2042 -12.9169 -13.3258
9845 1 -9.31856 -14.2949 -13.074 24.3387 -14.2949 -13.074
951 1 -5.59597 -12.3015 -13.3722 -5.59597 -12.3015 -13.3722
4720 1 -2.33301 -13.3758 -13.2189 -2.33301 20.2815 -13.2189
15834 1 -0.398437 -12.9861 -13.5533 -0.398437 -12.9861 20.1039
14266 1 -16.4883 -10.9661 -13.1499 17.169 22.6912 -13.1499
16054 1 -9.84915 -1.38238 -16.3968 23.8081 -1.38238 17.2605
6879 1 -14.9607 -11.9932 -13.3863 -14.9607 21.664 20.271
11856 1 -14.1617 -11.1744 -14.7198 19.4955 -11.1744 18.9375
10172 1 -12.6224 -12.0801 -13.5283 21.0349 -12.0801 -13.5283
10492 1 -11.9782 -11.3375 -13.2059 21.6791 -11.3375 20.4513
5923 1 -10.6159 -11.314 -13.3988 -10.6159 -11.314 -13.3988
1435 1 -9.20349 -11.7734 -13.3718 -9.20349 -11.7734 -13.3718
6711 1 -8.43462 -12.7518 -12.7369 -8.43462 20.9054 20.9204
1461 1 -7.88097 -12.1529 -13.8725 -7.88097 -12.1529 -13.8725
5290 1 -5.35387 -11.1491 -13.3168 -5.35387 -11.1491 -13.3168
10676 1 -6.93825 -12.2762 -13.3179 -6.93825 -12.2762 -13.3179
3551 1 -5.30946 -11.7474 -14.7188 -5.30946 -11.7474 -14.7188
5990 1 -4.39896 -11.8618 -12.715 -4.39896 -11.8618 -12.715
9890 1 -2.81345 -12.1914 -14.0251 -2.81345 -12.1914 -14.0251
12009 1 -2.33813 -11.7598 -13.055 -2.33813 -11.7598 20.6022
9183 1 -0.436817 -11.6479 -13.5528 -0.436817 -11.6479 -13.5528
10111 1 -1.24551 -12.7736 -12.8685 -1.24551 -12.7736 -12.8685
2548 1 -15.3622 -11.042 -14.0998 -15.3622 -11.042 19.5575
849 1 -14.2778 -11.0603 -13.0663 -14.2778 -11.0603 -13.0663
6302 1 -12.9303 -10.6222 -14.3275 -12.9303 23.035 -14.3275
4852 1 -11.4607 -10.361 -12.9365 -11.4607 23.2962 -12.9365
1802 1 -10.2476 -10.2872 -13.7258 -10.2476 -10.2872 -13.7258
11712 1 -8.236 -11.0028 -14.1704 25.4213 -11.0028 19.4869
6380 1 -6.51496 -10.8546 -12.6187 -6.51496 -10.8546 -12.6187
3074 1 -5.42001 -10.0014 -14.1498 -5.42001 -10.0014 19.5074
6994 1 -4.28502 -10.2787 -13.8451 -4.28502 -10.2787 19.8121
7430 1 -3.13424 -10.7229 -13.7085 -3.13424 -10.7229 19.9487
4796 1 -1.24363 -10.9727 -13.3211 -1.24363 -10.9727 -13.3211
7931 1 -15.9157 -9.74377 -12.9511 -15.9157 23.9135 20.7062
8697 1 -14.604 -9.38457 -12.6428 19.0532 -9.38457 -12.6428
3528 1 -13.0743 -8.53595 -13.3871 -13.0743 -8.53595 -13.3871
12587 1 -12.821 -10.0376 -12.8482 20.8363 -10.0376 -12.8482
740 1 -11.7471 -8.83977 -13.5231 -11.7471 -8.83977 -13.5231
5423 1 -10.573 -8.61495 -13.7267 -10.573 -8.61495 -13.7267
3061 1 -9.37985 -9.25761 -13.9687 -9.37985 -9.25761 19.6885
2147 1 -9.36121 -9.46227 -12.6895 -9.36121 -9.46227 20.9677
1687 1 -7.37562 -10.0286 -12.8074 -7.37562 -10.0286 -12.8074
389 1 -6.38704 -8.98207 -12.9433 -6.38704 -8.98207 -12.9433
3618 1 -5.9258 -9.94346 -12.6771 -5.9258 -9.94346 20.9802
8172 1 -3.67236 -8.8159 -13.2514 -3.67236 -8.8159 -13.2514
4581 1 -2.11361 -9.17386 -12.7769 -2.11361 -9.17386 -12.7769
2361 1 -15.1632 -8.55131 -13.669 -15.1632 -8.55131 19.9882
1524 1 -3.95749 -9.82523 -16.6154 -3.95749 -9.82523 -16.6154
11708 1 -14.0747 -7.79547 -13.0103 -14.0747 -7.79547 20.647
12226 1 -12.7846 -7.45034 -13.4647 -12.7846 -7.45034 20.1926
192 1 -11.986 -7.83481 -12.6572 -11.986 -7.83481 -12.6572
12169 1 -10.0246 -7.23717 -13.9534 -10.0246 -7.23717 -13.9534
5155 1 -7.48542 -7.86859 -13.143 -7.48542 25.7887 -13.143
1895 1 -4.33093 -7.71256 -13.8488 -4.33093 -7.71256 -13.8488
4566 1 -3.11754 -6.55465 -13.276 -3.11754 27.1026 -13.276
797 1 -1.85656 -8.00698 -13.4135 -1.85656 -8.00698 -13.4135
12340 1 -0.706009 -7.9747 -13.7819 -0.706009 -7.9747 19.8753
12580 1 -16.091 -6.63896 -13.3973 -16.091 -6.63896 -13.3973
8057 1 -15.0109 -6.94417 -13.4121 -15.0109 -6.94417 -13.4121
15275 1 -13.9419 -6.58735 -13.9632 19.7154 -6.58735 19.694
12159 1 -12.2724 -6.49688 -13.2456 -12.2724 -6.49688 20.4116
2398 1 -11.2671 -6.76456 -13.6259 -11.2671 -6.76456 20.0314
10003 1 -11.0727 -6.96351 -12.5395 22.5846 -6.96351 -12.5395
741 1 -9.08908 -6.14746 -13.3525 -9.08908 -6.14746 -13.3525
11445 1 -7.88459 -6.98203 -12.6839 25.7727 -6.98203 20.9734
10259 1 -6.22131 -7.39014 -13.8081 -6.22131 -7.39014 -13.8081
1590 1 -5.41156 -6.29769 -13.676 -5.41156 -6.29769 -13.676
5563 1 -4.1307 -5.391 -13.3978 -4.1307 -5.391 -13.3978
10824 1 -2.58063 -5.40115 -13.2794 -2.58063 -5.40115 20.3779
13477 1 -1.68352 -6.2685 -13.7426 -1.68352 27.3888 -13.7426
11182 1 -0.541491 -7.28426 -12.6875 -0.541491 -7.28426 20.9698
5279 1 -14.4438 -4.75038 -13.0697 -14.4438 -4.75038 -13.0697
4176 1 -15.4119 -4.88462 -13.3939 -15.4119 -4.88462 -13.3939
8224 1 -13.6852 -5.2416 -12.1625 19.9721 -38.8989 -12.1625
10037 1 -12.1182 -4.8404 -13.0774 -12.1182 -4.8404 -13.0774
3363 1 -11.0549 -5.56744 -12.7254 -11.0549 -5.56744 20.9319
2264 1 -8.95061 -4.40485 -13.0598 -8.95061 -4.40485 20.5974
1866 1 -7.8077 -4.39993 -14.5212 -7.8077 -4.39993 -14.5212
2736 1 -8.02128 -5.78378 -13.091 -8.02128 -5.78378 20.5663
570 1 -6.88076 -4.33718 -13.0271 -6.88076 -4.33718 -13.0271
13950 1 -6.07922 -5.45613 -12.9762 -6.07922 -5.45613 -12.9762
13501 1 -4.10354 -3.81247 -12.6448 -4.10354 -3.81247 -12.6448
8131 1 -1.38081 -4.82996 -12.9839 -1.38081 -4.82996 -12.9839
13161 1 -0.710292 -5.92503 -13.2699 -0.710292 -5.92503 -13.2699
13423 1 -16.7935 -2.49581 -13.2474 16.8637 -2.49581 -13.2474
1707 1 -16.5496 -4.17016 -13.4065 -16.5496 -4.17016 -13.4065
4346 1 -14.4936 -4.58693 -14.1524 -14.4936 -4.58693 -14.1524
7670 1 -13.9798 -3.38614 -12.8741 -13.9798 -3.38614 20.7832
14615 1 -13.2915 -4.05046 -12.5716 20.3657 -4.05046 21.0857
8744 1 -10.8956 -3.72889 -13.7628 22.7616 -3.72889 -13.7628
1520 1 -11.8328 -3.69212 -12.9632 -11.8328 -3.69212 -12.9632
6 1 -9.9964 -4.1506 -13.4774 -9.9964 -4.1506 -13.4774
22 1 -8.24112 -3.71973 -13.6716 -8.24112 -3.71973 -13.6716
1648 1 -6.80847 -3.12096 -13.0905 -6.80847 -3.12096 -13.0905
1408 1 -5.68353 -4.06284 -13.3974 -5.68353 -4.06284 -13.3974
3508 1 -4.44124 -2.75033 -12.9778 -4.44124 -2.75033 20.6794
11792 1 -3.15326 -2.64138 -13.4984 -3.15326 -2.64138 20.1588
9673 1 -3.3912 -4.07432 -13.6661 -3.3912 -4.07432 -13.6661
9111 1 -1.95951 -3.62679 -13.7693 -1.95951 -3.62679 -13.7693
287 1 -0.492433 -4.04886 -12.7811 -0.492433 29.6084 -12.7811
12427 1 -15.1822 -2.59447 -13.3897 18.4751 -2.59447 -13.3897
4452 1 -13.9339 -2.40843 -13.289 -13.9339 -2.40843 -13.289
392 1 -12.9426 -2.92407 -13.7177 -12.9426 -2.92407 -13.7177
6981 1 -12.8725 -1.91521 -12.732 -12.8725 -1.91521 20.9252
5178 1 -11.977 -2.68649 -13.8878 -11.977 -2.68649 -13.8878
1763 1 -10.6177 -2.45303 -13.809 -10.6177 -2.45303 -13.809
9303 1 -8.51215 -1.88142 -14.221 25.1451 -1.88142 -14.221
1032 1 -8.69146 -2.93721 -13.2514 -8.69146 -2.93721 -13.2514
4025 1 -9.7079 -1.74894 -13.0241 -9.7079 -1.74894 20.6331
2505 1 -7.63716 -2.54164 -14.5141 -7.63716 -2.54164 19.1431
11563 1 -7.84053 -2.16355 -13.1514 -7.84053 -2.16355 20.5059
1882 1 -6.71113 -1.20759 -13.6811 -6.71113 -1.20759 -13.6811
331 1 -6.16701 -2.08757 -12.7666 -6.16701 -2.08757 -12.7666
324 1 -4.85041 -2.15782 -13.9518 -4.85041 -2.15782 -13.9518
2589 1 -4.1649 -1.45539 -12.742 -4.1649 -1.45539 20.9153
7075 1 -2.23361 -1.6406 -14.0531 -2.23361 -1.6406 19.6041
5080 1 -14.9041 -16.5657 -6.80206 -14.9041 17.0915 -6.80206
6784 1 -1.00145 -2.66629 -13.5996 -1.00145 -2.66629 20.0577
13956 1 -15.764 -1.58079 -13.7829 17.8932 -1.58079 -13.7829
10798 1 -16.4684 -0.529911 -13.616 17.1889 -0.529911 20.0412
8062 1 -14.9572 -1.00333 -12.9995 -14.9572 -1.00333 20.6577
9266 1 -11.8822 -1.21409 -13.3106 21.775 -1.21409 -13.3106
7763 1 -10.977 -1.4389 -12.7697 -10.977 -1.4389 20.8875
2023 1 -10.7256 -0.367753 -11.4801 -10.7256 -0.367753 -11.4801
1335 1 -7.41211 -0.436267 -13.352 -7.41211 -0.436267 -13.352
7325 1 -5.98684 -0.239789 -13.2327 -5.98684 -0.239789 20.4245