ITEM: TIMESTEP
6000
ITEM: NUMBER OF ATOMS
16384
ITEM: BOX BOUNDS pp pp pp
-1.6828627036276380e+01 1.6828627036276380e+01
-1.6828627036276380e+01 1.6828627036276380e+01
-1.6828627036276380e+01 1.6828627036276380e+01
ITEM: ATOMS id type x y z xu yu zu
5975 1 -15.9684 -15.7351 -16.5017 -15.9684 17.9221 -16.5017
8447 1 -7.55598 -0.0947729 -6.12571 26.1013 -0.0947729 -6.12571
15029 1 -13.2639 -16.374 -15.1039 -13.2639 -16.374 18.5533
8955 1 -12.5514 -15.8476 -14.1802 21.1059 17.8097 -14.1802
5551 1 -10.2366 -16.7886 -16.606 -10.2366 16.8686 -16.606
7734 1 -8.82619 -14.5215 -16.3203 -8.82619 19.1357 17.3369
7538 1 -5.16436 -15.8988 -15.3189 -5.16436 17.7584 18.3383
4572 1 -3.79203 -15.8685 -14.3029 -3.79203 17.7888 -14.3029
14054 1 -3.76487 -16.3079 -15.4349 -3.76487 17.3493 -15.4349
3423 1 -1.94663 -15.8059 -16.2808 -1.94663 -15.8059 17.3765
12021 1 -1.01739 -16.6337 -16.4234 -1.01739 -16.6337 17.2338
2080 1 -12.0741 -16.6819 -2.50051 -12.0741 -16.6819 31.1567
469 1 -14.1136 -15.1034 -16.0001 -14.1136 -15.1034 -16.0001
15615 1 -12.0244 -14.37 -16.0149 -12.0244 19.2873 17.6424
7456 1 -9.89826 -15.2696 -15.3787 -9.89826 18.3876 -15.3787
4514 1 -8.36922 -14.5637 -14.7022 -8.36922 19.0935 -14.7022
13796 1 -2.75858 -16.2081 -4.19171 -2.75858 17.4492 -4.19171
8868 1 -6.61423 -14.8666 -15.3553 -6.61423 -14.8666 -15.3553
2126 1 -2.50384 -14.8878 -15.3593 -2.50384 -14.8878 18.2979
5937 1 -0.461075 -14.7123 -16.706 -0.461075 18.9449 -16.706
1030 1 -8.40325 -0.295654 -3.33264 -8.40325 -0.295654 -3.33264
9191 1 -1.25627 -0.460963 -2.27416 -1.25627 -0.460963 -2.27416
2023 1 -11.4037 -0.418739 -11.2563 -11.4037 -0.418739 -11.2563
654 1 -2.7768 -0.157727 -12.5369 -2.7768 -0.157727 -12.5369
2488 1 -9.57706 -13.9733 -15.6205 -9.57706 -13.9733 18.0368
7042 1 -12.3388 -12.2285 -16.141 -12.3388 21.4288 17.5163
1812 1 -10.9479 -13.7083 -15.9948 -10.9479 -13.7083 -15.9948
930 1 -10.1131 -16.4146 -11.9042 -10.1131 -16.4146 -11.9042
1535 1 -8.09941 -13.0071 -15.8601 -8.09941 -13.0071 17.7972
2471 1 -7.0424 -13.8393 -16.186 -7.0424 -13.8393 17.4712
15567 1 -16.7469 -13.4932 -10.7718 16.9104 -13.4932 22.8854
1925 1 -4.97493 -13.5015 -15.7116 -4.97493 -13.5015 -15.7116
5675 1 -9.2438 -0.0334592 -2.00596 -9.2438 -0.0334592 -2.00596
8719 1 -1.5852 -13.8388 -16.2546 -1.5852 -13.8388 -16.2546
9099 1 -0.985184 -12.7226 -16.3732 -0.985184 -12.7226 -16.3732
10488 1 -16.3485 -12.7208 -16.3766 17.3088 20.9365 17.2806
6141 1 -0.125516 -7.06327 -3.94156 -0.125516 26.594 -3.94156
12354 1 -15.2045 -0.815567 -13.2651 18.4528 -0.815567 -13.2651
2341 1 -11.6124 -11.1327 -16.0696 -11.6124 -11.1327 17.5877
11190 1 -10.7054 -12.4723 -16.5594 -10.7054 -12.4723 17.0978
4665 1 -11.3752 -12.1198 -15.3005 -11.3752 21.5374 -15.3005
12083 1 -16.805 -8.5682 -2.76645 16.8522 -8.5682 -2.76645
10749 1 -6.47561 -9.99801 -16.3099 -6.47561 -9.99801 -16.3099
1723 1 -6.49329 -13.2127 -15.5189 -6.49329 -13.2127 -15.5189
2426 1 -5.57214 -12.403 -15.0365 -5.57214 -12.403 18.6207
11971 1 -16.5717 -13.3287 -7.49977 17.0856 -13.3287 -7.49977
9859 1 -2.67681 -13.2611 -15.8152 -2.67681 -13.2611 -15.8152
8124 1 -13.8302 -0.00539973 -6.22436 -13.8302 -0.00539973 27.4329
749 1 -15.543 -9.13338 -15.792 -15.543 -9.13338 -15.792
9190 1 -15.0399 -10.2997 -15.7752 18.6173 -10.2997 17.8821
179 1 -13.667 -10.9693 -15.8001 -13.667 -10.9693 -15.8001
1175 1 -12.1138 -9.79561 -15.5145 -12.1138 -9.79561 -15.5145
8215 1 -13.8005 -9.75993 -15.783 -13.8005 23.8973 17.8743
6523 1 -10.1175 -10.0547 -16.5141 -10.1175 23.6026 17.1431
5493 1 -12.0427 -16.7258 -6.81256 -12.0427 16.9315 -6.81256
6529 1 -8.49121 -11.5902 -15.9911 -8.49121 -11.5902 17.6661
6275 1 -4.74247 -11.7087 -15.9038 -4.74247 -11.7087 -15.9038
8083 1 -5.48075 -11.017 -15.6994 -5.48075 -11.017 17.9579
1524 1 -3.12599 -9.87946 -15.6951 -3.12599 -9.87946 -15.6951
7037 1 -1.46427 -10.5379 -15.8685 -1.46427 23.1193 17.7888
5367 1 -9.71823 -16.5319 -15.7674 -9.71823 17.1253 -15.7674
16141 1 -16.7383 -8.42215 -15.6242 16.9189 -8.42215 18.0331
14641 1 -11.5423 -16.5695 -0.840589 22.1149 17.0877 -0.840589
5025 1 -15.407 -7.97242 -15.4895 -15.407 -7.97242 -15.4895
12646 1 -14.297 -16.8016 -6.01308 19.3603 16.8556 -6.01308
12045 1 -14.192 -8.91036 -16.5616 19.4653 -8.91036 17.0956
808 1 -10.9091 -9.09431 -15.6718 -10.9091 -9.09431 -15.6718
597 1 -8.33732 -10.6901 -15.0645 -41.9946 -10.6901 18.5928
7639 1 -5.96402 -8.85809 -15.9581 -5.96402 -8.85809 17.6991
4295 1 -6.06373 -8.78452 -13.8388 -6.06373 -8.78452 -13.8388
10054 1 -4.6611 -9.73004 -15.2265 -4.6611 -9.73004 -15.2265
10961 1 -0.589245 -9.84326 -15.3485 -0.589245 -9.84326 18.3087
8415 1 -1.35247 -8.41837 -15.2839 -1.35247 -8.41837 -15.2839
11975 1 -15.2607 -7.09422 -16.458 18.3965 -7.09422 17.1993
3051 1 -13.737 -8.24983 -15.3941 -13.737 -8.24983 18.2632
13617 1 -12.7928 -8.62103 -16.6131 -12.7928 25.0362 -16.6131
12522 1 -11.5408 -7.93719 -15.8456 -11.5408 -7.93719 -15.8456
220 1 -16.6567 -14.2643 -4.09681 17.0006 -14.2643 -4.09681
8527 1 -0.0340586 -3.80654 -1.21315 -0.0340586 -3.80654 -1.21315
1438 1 -9.5307 -8.57987 -15.4438 -9.5307 -8.57987 -15.4438
476 1 -8.55851 -7.8443 -16.7049 -8.55851 -7.8443 -16.7049
15466 1 -6.22321 -0.182144 -4.1641 -6.22321 -0.182144 -4.1641
3889 1 -4.71712 -7.33757 -15.4661 -4.71712 -7.33757 -15.4661
1256 1 -0.981831 -9.0104 -16.1392 -0.981831 -9.0104 -16.1392
6772 1 -16.2027 -6.58707 -16.0994 -16.2027 -6.58707 17.5578
6319 1 -14.5026 -6.80542 -15.5637 -14.5026 26.8518 18.0935
2010 1 -13.0634 -6.04539 -15.5729 -13.0634 -6.04539 -15.5729
16305 1 -10.9565 -7.1415 -16.5465 -10.9565 -7.1415 17.1107
14402 1 -10.893 -6.24124 -14.9491 22.7643 -6.24124 18.7081
1639 1 -9.31959 -6.98691 -16.3606 -9.31959 -6.98691 -16.3606
4995 1 -8.77156 -7.55375 -15.1812 -8.77156 -7.55375 -15.1812
12190 1 -8.44869 -6.2084 -16.1227 -8.44869 -6.2084 17.5346
4715 1 -7.42799 -6.94238 -15.7385 -7.42799 26.7149 -15.7385
6363 1 -1.38848 -15.8663 -15.0951 -1.38848 17.791 18.5621
9102 1 -6.20579 -6.94304 -16.7639 -6.20579 -6.94304 -16.7639
1481 1 -4.60321 -6.36262 -15.752 -4.60321 -6.36262 -15.752
11381 1 -3.48426 -7.05883 -16.4912 30.173 -7.05883 17.166
9002 1 -2.57804 -6.3416 -15.8798 -2.57804 -6.3416 -15.8798
12289 1 -0.170785 -5.60936 -15.4618 -0.170785 28.0479 18.1955
1527 1 -16.4272 -11.3887 -15.7261 -16.4272 -11.3887 -15.7261
1953 1 -14.9792 -4.65178 -16.6381 -14.9792 -4.65178 -16.6381
3029 1 -12.9306 -5.38883 -14.762 -12.9306 -5.38883 18.8953
6501 1 -14.1567 -5.05841 -15.9907 -14.1567 -5.05841 17.6665
8921 1 -12.5075 -5.23903 -16.4146 -12.5075 -5.23903 -16.4146
4724 1 -11.0915 -3.88863 -16.4311 -11.0915 -3.88863 -16.4311
8616 1 -11.2412 -5.62379 -16.7265 -11.2412 -5.62379 -16.7265
11507 1 -10.1066 -5.46295 -15.9574 23.5506 -5.46295 17.6999
6340 1 -5.21929 -16.1126 -0.999088 -5.21929 17.5446 -0.999088
12218 1 -8.73116 -4.63877 -16.1122 -8.73116 -4.63877 17.545
5320 1 -6.79927 -5.514 -15.8312 -6.79927 -5.514 -15.8312
3832 1 -4.43959 -4.70436 -15.8021 -4.43959 -4.70436 17.8551
12275 1 -16.3495 -16.1659 -8.10739 17.3077 -16.1659 25.5499
5386 1 -3.54623 -5.66702 -15.3439 -3.54623 27.9902 -15.3439
10045 1 -3.34476 -16.2257 -0.775708 -3.34476 -16.2257 -0.775708
1169 1 -1.97283 -4.85519 -15.8605 -1.97283 -4.85519 -15.8605
10490 1 -16.0993 -4.03737 -16.4039 17.5579 -4.03737 17.2533
11517 1 -9.90001 -4.30886 -16.7306 23.7572 -4.30886 16.9266
9678 1 -14.1818 -3.97129 -15.3693 19.4755 -3.97129 -15.3693
13690 1 -10.4293 -2.84909 -16.4552 23.228 -2.84909 -16.4552
15893 1 -13.2317 -3.90606 -15.8436 -13.2317 -3.90606 17.8136
5740 1 -9.80125 -4.24067 -15.5298 -9.80125 -4.24067 -15.5298
2649 1 -9.35641 -2.97087 -16.5091 -9.35641 -2.97087 17.1481
10958 1 -7.47857 -3.23916 -15.3233 -7.47857 -3.23916 18.3339
4321 1 -7.06791 -4.11171 -15.871 -7.06791 -4.11171 -15.871
11181 1 -15.6035 -13.8529 -0.808147 18.0538 -13.8529 -0.808147
1690 1 -5.47702 -3.94296 -16.4424 -5.47702 -3.94296 -16.4424
10574 1 -3.38625 -4.25717 -15.5011 -3.38625 -4.25717 18.1562
11978 1 -2.04836 -4.46823 -14.869 -2.04836 -4.46823 18.7883
2049 1 -2.28081 -3.26899 -15.6545 -2.28081 -3.26899 18.0027
7275 1 -1.75755 -3.72819 -16.401 -1.75755 29.9291 17.2562
13191 1 -1.11471 -2.9574 -15.6648 -1.11471 -2.9574 17.9924
4094 1 -16.7856 -2.63643 -16.7066 -16.7856 -2.63643 -16.7066
10751 1 -14.2008 -2.23964 -16.5343 19.4564 -2.23964 17.123
2303 1 -14.0527 -3.24621 -13.7068 -14.0527 -3.24621 19.9505
4349 1 -11.8028 -1.99607 -15.2511 -11.8028 -1.99607 -15.2511
11013 1 -13.5716 -2.62969 -15.4337 20.0856 -2.62969 18.2236
15013 1 -5.01765 -0.57635 -14.8701 -5.01765 -0.57635 18.7871
13107 1 -16.1208 -0.14455 -8.08749 17.5364 -0.14455 -8.08749
9756 1 -10.1045 -2.46075 -14.6582 23.5528 -36.118 -14.6582
13282 1 -10.1958 -1.86205 -15.5786 23.4614 -1.86205 -15.5786
10 1 -6.29291 -2.9815 -16.3358 -6.29291 -2.9815 -16.3358
2927 1 -9.00059 -1.57957 -16.4455 -9.00059 -35.2368 17.2117
5248 1 -5.35169 -2.85926 -15.3711 -5.35169 -2.85926 -15.3711
2110 1 -6.01694 -1.32642 -16.1392 -6.01694 -1.32642 17.5181
14181 1 -0.0901648 -10.2854 -10.1451 -0.0901648 23.3719 -10.1451
160 1 -3.19753 -3.45725 -16.4805 -3.19753 -3.45725 -16.4805
302 1 -13.3935 -16.4909 -6.70866 -13.3935 -16.4909 -6.70866
3413 1 -0.740272 -6.38821 -7.29897 -0.740272 -6.38821 -7.29897
7181 1 -15.5583 -0.806877 -14.927 -15.5583 -0.806877 -14.927
4973 1 -16.315 -1.58496 -16.5005 -16.315 -1.58496 -16.5005
15279 1 -2.77617 -14.5159 -16.6697 -2.77617 19.1414 16.9876
8128 1 -14.8219 -1.09772 -15.9876 -14.8219 -1.09772 17.6697
13904 1 -12.5847 -0.82124 -15.6325 -12.5847 -0.82124 -15.6325
6485 1 -9.56261 -0.910843 -15.7198 -9.56261 32.7464 17.9374
12420 1 -7.50558 -0.738055 -16.6494 26.1517 -0.738055 -16.6494
13614 1 -1.50151 -9.37038 -0.113974 32.1557 -9.37038 -0.113974
7703 1 -6.77459 -0.288381 -15.2377 -6.77459 -0.288381 18.4196
2742 1 -8.6313 -10.8402 -16.7221 -8.6313 -10.8402 16.9351
58 1 -15.3525 -5.63973 -15.7982 -15.3525 -5.63973 -15.7982
5528 1 -3.52129 -0.399794 -15.7804 -3.52129 -0.399794 -15.7804
6673 1 -2.789 -1.91327 -16.6919 -2.789 -1.91327 16.9654
5941 1 -1.07416 -0.500091 -15.902 -1.07416 -0.500091 -15.902
15196 1 -16.1062 -16.0239 -14.4897 17.551 17.6333 19.1675
15121 1 -14.7785 -16.3881 -14.163 18.8787 17.2691 19.4942
2851 1 -13.0632 -16.4531 -13.2475 -13.0632 -16.4531 20.4098
8046 1 -11.8989 -15.0441 -15.0158 -11.8989 18.6131 18.6415
9305 1 -11.5825 -16.5329 -13.9532 -11.5825 -16.5329 -13.9532
74 1 -10.6858 -15.6705 -14.8048 -10.6858 -15.6705 -14.8048
3115 1 -0.257574 -9.65456 -4.20305 -0.257574 -9.65456 -4.20305
6369 1 -8.63709 -16.1195 -15.1596 -8.63709 17.5378 18.4977
472 1 -7.73591 -15.0412 -16.199 -7.73591 -15.0412 -16.199
934 1 -7.4369 -15.6816 -15.1165 -7.4369 -15.6816 -15.1165
11648 1 -6.11408 -15.8823 -14.2197 -6.11408 -15.8823 19.4375
6376 1 -4.85265 -16.6612 -14.6036 -4.85265 16.9961 19.0537
5916 1 -5.86905 -15.3142 -12.5576 -5.86905 18.3431 -12.5576
12571 1 -0.513984 -15.8333 -14.2575 -0.513984 17.824 -14.2575
12722 1 -15.8972 -7.72103 -2.53297 17.7601 -7.72103 -2.53297
3795 1 -7.88485 -0.957538 -0.714882 -7.88485 -0.957538 -0.714882
2372 1 -14.5578 -16.7635 -15.855 -14.5578 -16.7635 17.8023
8203 1 -5.90047 -4.91631 -16.681 -5.90047 -4.91631 16.9763
1924 1 -14.2285 -14.7007 -14.62 -14.2285 -14.7007 -14.62
15107 1 -13.8326 -15.6181 -14.6671 19.8246 -15.6181 18.9901
8100 1 -12.8728 -14.5778 -15.4607 -46.5301 19.0795 18.1965
3063 1 -12.8846 -14.0759 -13.827 -12.8846 -14.0759 19.8302
14882 1 -12.2696 -13.7086 -15.1319 21.3876 19.9486 18.5253
4054 1 -9.43337 -15.1514 -13.9439 -9.43337 -15.1514 19.7133
3127 1 -7.57775 -13.4442 -14.5505 -7.57775 -13.4442 19.1068
16382 1 -5.79556 -14.6059 -14.8219 -5.79556 19.0513 -14.8219
8669 1 -2.44236 -15.6804 -14.5256 -2.44236 -15.6804 -14.5256
357 1 -3.68041 -14.0133 -15.3451 -3.68041 -14.0133 -15.3451
9096 1 -1.7949 -15.027 -13.5864 -1.7949 -15.027 -13.5864
8540 1 -2.20245 -13.8485 -15.1102 -2.20245 -13.8485 -15.1102
9630 1 -1.28936 -14.029 -14.1315 -1.28936 -14.029 -14.1315
2711 1 -4.0242 -10.8922 -16.804 -37.6815 -10.8922 -16.804
15526 1 -15.8888 -8.82936 -16.7167 17.7685 24.8279 16.9406
15396 1 -15.9282 -13.758 -14.5762 17.7291 19.8993 19.081
3581 1 -13.9068 -13.4817 -15.8901 -13.9068 -13.4817 17.7672
12827 1 -14.3243 -13.5358 -14.8934 -14.3243 20.1215 -14.8934
767 1 -13.5069 -13.1459 -13.9951 -13.5069 -13.1459 -13.9951
1251 1 -10.5442 -13.8305 -15.0079 -10.5442 19.8268 -15.0079
9435 1 -8.79628 -12.904 -14.8225 24.861 -12.904 -14.8225
7848 1 -8.8491 -12.4069 -13.4412 -8.8491 21.2503 20.2161
13962 1 -7.00304 -15.2321 -13.753 26.6542 -15.2321 -13.753
8173 1 -4.57488 -12.9005 -14.3286 -4.57488 20.7568 19.3286
9433 1 -3.26076 -13.5515 -14.5058 -3.26076 -13.5515 -14.5058
8922 1 -0.0275019 -13.0304 -14.2513 -0.0275019 -13.0304 -14.2513
1431 1 -16.3889 -12.7088 -15.1311 -16.3889 -12.7088 -15.1311
1978 1 -15.256 -12.2473 -15.5816 -15.256 -12.2473 -15.5816
11606 1 -16.0531 -11.6066 -14.5554 17.6042 -11.6066 -14.5554
4219 1 -13.5417 -12.5947 -15.4999 -13.5417 21.0625 -15.4999
5720 1 -12.0361 -12.5052 -14.1096 -12.0361 21.152 -14.1096
1331 1 -12.307 -10.8488 -13.2574 -12.307 -10.8488 -13.2574
13813 1 -9.95227 -12.4225 -14.2593 23.705 21.2348 -14.2593
3722 1 -9.74808 -12.7948 -16.1326 -9.74808 -12.7948 17.5246
1537 1 -6.13908 -11.422 -14.7731 -6.13908 -11.422 -14.7731
4147 1 -6.44698 -12.8848 -14.02 -6.44698 20.7725 -14.02
8402 1 -5.50151 -13.4024 -14.5877 -5.50151 -13.4024 -14.5877
7644 1 -4.79818 -11.3473 -14.4056 -4.79818 22.3099 19.2517
3551 1 -3.83247 -12.1415 -13.2409 -3.83247 -12.1415 -13.2409
8255 1 -4.07342 -12.1078 -15.2183 -4.07342 -12.1078 -15.2183
9890 1 -3.04386 -11.101 -15.9827 -3.04386 -11.101 -15.9827
9896 1 -1.84061 -12.743 -15.0725 -1.84061 -12.743 -15.0725
9183 1 -1.22139 -11.5858 -13.883 -1.22139 -11.5858 -13.883
356 1 -13.5652 -0.708318 -16.7551 -13.5652 -0.708318 -16.7551
1375 1 -15.4275 -9.60725 -14.8822 -15.4275 -9.60725 -14.8822
13271 1 -14.9574 -10.9266 -14.6318 18.6998 22.7306 -14.6318
11856 1 -14.2388 -9.9894 -14.5304 19.4185 -9.9894 19.1269
6302 1 -13.8032 -10.971 -12.5266 -13.8032 22.6863 -12.5266
14478 1 -12.696 -10.8075 -14.6907 20.9612 22.8498 -14.6907
4235 1 -11.6135 -11.1474 -14.8298 -11.6135 22.5098 18.8274
503 1 -9.83186 -10.494 -15.2239 -9.83186 -10.494 -15.2239
1802 1 -9.12365 -10.6295 -14.0877 -9.12365 -10.6295 -14.0877
7530 1 -9.45746 -11.2537 -15.8444 -9.45746 -11.2537 17.8128
11712 1 -7.74535 -12.3548 -14.9786 25.9119 -12.3548 18.6787
1305 1 -7.18071 -10.4864 -15.3844 -7.18071 -10.4864 -15.3844
12016 1 -4.13038 -9.53398 -14.3274 -4.13038 -9.53398 19.3299
5290 1 -5.87426 -10.0029 -14.9716 -5.87426 -10.0029 -14.9716
7430 1 -2.90443 -8.95093 -14.7599 -2.90443 -8.95093 18.8974
6944 1 -1.56854 -11.5724 -15.4623 -1.56854 22.0848 18.195
4796 1 -1.47507 -9.1335 -14.1926 -1.47507 -9.1335 -14.1926
995 1 -1.93468 -10.5818 -14.3611 -1.93468 -10.5818 -14.3611
8831 1 -16.6604 -9.18184 -14.9671 16.9968 -9.18184 -14.9671
1152 1 -2.23024 -7.24591 -16.6615 -2.23024 -7.24591 16.9958
6982 1 -12.9666 -9.51903 -14.2364 -12.9666 -9.51903 19.4209
5986 1 -12.5473 -8.77288 -15.3476 -12.5473 -8.77288 -15.3476
1536 1 -11.964 -10.1184 -14.2035 -11.964 -10.1184 -14.2035
2261 1 -9.93896 -9.44864 -14.7123 -9.93896 -9.44864 18.945
1760 1 -7.28957 -9.23779 -14.9661 -7.28957 -9.23779 -14.9661
9124 1 -7.5084 -9.07834 -13.9027 -7.5084 -9.07834 -13.9027
751 1 -6.31081 -7.68733 -13.4052 -6.31081 -7.68733 -13.4052
3074 1 -5.91378 -10.1485 -13.1879 -5.91378 -10.1485 20.4693
4807 1 -5.02016 -9.37092 -13.2085 -5.02016 24.2863 -13.2085
11149 1 -3.23165 -8.31516 -16.3895 -3.23165 -8.31516 17.2677
13517 1 -3.48902 -8.51268 -13.4305 -3.48902 25.1446 -13.4305
7070 1 -0.780202 -8.38932 -14.0269 -0.780202 -8.38932 19.6304
12274 1 -11.4113 -7.45459 -0.325234 22.246 -7.45459 -0.325234
4007 1 -16.0069 -8.39618 -13.9942 -16.0069 -8.39618 19.663
335 1 -15.3045 -8.07767 -13.2001 -15.3045 -8.07767 -13.2001
2623 1 -15.4514 -6.89686 -14.8075 -15.4514 -6.89686 18.8498
15275 1 -14.6522 -8.8418 -14.8698 19.0051 -8.8418 18.7874
14935 1 -13.2593 -7.81855 -14.2662 -13.2593 -7.81855 19.391
2611 1 -11.1855 -7.58087 -14.4869 -11.1855 -7.58087 19.1703
480 1 -10.5655 -8.22107 -15.0571 -10.5655 -8.22107 -15.0571
11538 1 -8.70332 -8.80162 -14.4493 24.9539 -8.80162 19.2079
12503 1 -8.60784 -9.20875 -15.8717 25.0494 24.4485 -15.8717
1843 1 -7.49957 -8.03621 -14.6776 -7.49957 -8.03621 -14.6776
7366 1 -7.21807 -8.04245 -16.3641 -7.21807 -8.04245 17.2931
11584 1 -6.10598 -7.60921 -14.8919 -6.10598 -7.60921 18.7653
3004 1 -2.75425 -7.95016 -14.3799 -2.75425 -7.95016 19.2773
1895 1 -3.8237 -8.31653 -15.1323 -3.8237 -8.31653 -15.1323
2324 1 -1.69899 -7.49985 -14.8074 -1.69899 -7.49985 18.8498
2250 1 -1.2303 -6.55424 -15.4692 -1.2303 -6.55424 18.1881
5342 1 -8.13398 -16.3996 -16.6046 -8.13398 17.2577 -16.6046
8500 1 -16.1582 -7.19401 -13.6327 17.499 -7.19401 -13.6327
10344 1 -12.9113 -7.24153 -16.277 20.746 -7.24153 17.3802
11112 1 -14.9119 -7.59679 -14.1099 18.7454 -7.59679 19.5474
6334 1 -12.2759 -7.16542 -15.1891 -12.2759 -7.16542 18.4682
3405 1 -9.80075 -7.42892 -14.6452 -9.80075 -7.42892 19.012
2873 1 -8.89938 -5.56989 -15.1705 -8.89938 -5.56989 18.4868
8056 1 -7.92506 -4.91624 -14.5783 -7.92506 -4.91624 19.079
2736 1 -7.84652 -6.42075 -14.5652 -7.84652 -6.42075 19.092
14616 1 -6.08041 -6.18807 -15.4601 -6.08041 -6.18807 18.1972
2185 1 -5.26283 -6.19727 -14.1429 -5.26283 -6.19727 19.5144
8505 1 -3.86367 -6.65871 -14.6365 -3.86367 -6.65871 -14.6365
1625 1 -2.52877 -6.38863 -14.5106 -2.52877 -6.38863 -14.5106
7403 1 -12.2795 -6.43374 -0.572264 -12.2795 -6.43374 -0.572264
5027 1 -5.09863 -9.61332 -16.5162 -5.09863 24.0439 -16.5162
10069 1 -14.7488 -4.8578 -14.9533 18.9084 -4.8578 -14.9533
15950 1 -15.7224 -5.97571 -14.5069 17.9349 -5.97571 19.1503
9339 1 -14.3985 -5.70198 -13.8763 19.2587 -5.70198 -13.8763
3070 1 -11.5484 -4.98376 -15.7349 -11.5484 -4.98376 17.9224
914 1 -10.3624 -4.49555 -14.4045 -10.3624 -4.49555 -14.4045
205 1 -8.07565 -5.63078 -13.6872 -8.07565 -5.63078 -13.6872
12350 1 -6.47769 -5.40602 -13.5021 -6.47769 28.2512 -13.5021
621 1 -6.72919 -4.90864 -14.8729 -6.72919 -4.90864 -14.8729
2117 1 -3.7075 -5.11225 -14.246 -3.7075 -5.11225 -14.246
3130 1 -5.42012 -5.42561 -15.0566 -5.42012 -5.42561 18.6006
15509 1 -2.5882 -5.26865 -14.1391 -2.5882 -5.26865 19.5181
1798 1 -1.39095 -5.65406 -14.3609 -1.39095 -5.65406 -14.3609
1135 1 -0.67288 -4.16455 -15.5742 -0.67288 -4.16455 -15.5742
4711 1 -16.4691 -4.95513 -14.7419 -16.4691 28.7021 -14.7419
3468 1 -15.3754 -3.83804 -14.8917 -15.3754 -3.83804 18.7655
1894 1 -14.2958 -4.33853 -13.8336 -14.2958 -4.33853 -13.8336
4789 1 -13.2983 -4.45833 -14.5128 -13.2983 -4.45833 -14.5128
5178 1 -11.158 -3.54935 -15.013 -11.158 -3.54935 -15.013
1589 1 -8.2748 -3.87424 -14.9352 -8.2748 -3.87424 -14.9352
15923 1 -10.5376 -6.10639 -13.5142 23.1197 -6.10639 20.1431
1866 1 -7.39433 -3.1427 -13.964 -7.39433 -3.1427 -13.964
22 1 -8.8995 -3.10994 -14.0422 -8.8995 -3.10994 -14.0422
4205 1 -4.86435 -1.77546 -14.5383 -4.86435 31.8818 -14.5383
16068 1 -4.37967 -3.99095 -14.7744 29.2776 -3.99095 -14.7744
4691 1 -3.36278 -3.45314 -14.802 -3.36278 -3.45314 -14.802
1702 1 -2.45285 -4.0055 -13.6059 -2.45285 -4.0055 -13.6059
13563 1 -1.34112 -1.63291 -15.3829 -1.34112 -1.63291 -15.3829
11310 1 -0.963894 -4.07017 -14.1055 -0.963894 -37.7274 19.5518
606 1 -16.572 -3.61925 -7.13827 -16.572 -37.2765 -7.13827
5094 1 -15.1461 -2.07101 -15.4825 -15.1461 -2.07101 -15.4825
12386 1 -14.9508 -2.58724 -14.1987 18.7065 -2.58724 -14.1987
9133 1 -12.7 -3.49488 -14.1416 20.9572 -3.49488 -14.1416
9429 1 -11.165 -1.9653 -13.4845 22.4923 -35.6226 -13.4845
13678 1 -9.48186 -1.33968 -13.9898 -9.48186 -1.33968 -13.9898
11676 1 -9.35257 -0.242193 -14.3293 24.3047 -0.242193 19.328
4597 1 -8.85859 -2.69954 -15.6893 -8.85859 -2.69954 -15.6893
2505 1 -6.98509 -2.15612 -15.785 -6.98509 -2.15612 17.8723
696 1 -7.149 -1.72955 -14.5242 -7.149 -1.72955 -14.5242
324 1 -3.99766 -2.5137 -14.0943 -3.99766 -2.5137 -14.0943
4522 1 -4.24488 -3.13208 -15.4197 -4.24488 -3.13208 -15.4197
573 1 -3.0646 -2.37139 -15.4563 -3.0646 -2.37139 -15.4563
8716 1 -0.593746 -1.42074 -16.0831 -0.593746 -1.42074 -16.0831
4875 1 -15.7997 -0.145932 -14.1167 -15.7997 -0.145932 -14.1167
4082 1 -13.8843 -0.840872 -15.3205 -13.8843 -0.840872 -15.3205
1023 1 -12.4379 -2.22152 -14.4574 -12.4379 -2.22152 -14.4574
5616 1 -10.9582 -1.33704 -16.3248 -10.9582 -1.33704 -16.3248
5666 1 -10.992 -0.438996 -12.91 -10.992 -0.438996 -12.91
3161 1 -12.2948 -1.04053 -16.7081 -12.2948 -1.04053 16.9491
8824 1 -8.24263 -0.139643 -13.6698 -8.24263 -0.139643 -13.6698
4345 1 -8.1899 -1.46853 -15.3142 -8.1899 -1.46853 -15.3142
4215 1 -16.7059 -4.7058 -2.26965 -16.7059 -4.7058 -2.26965
6851 1 -6.08558 -1.37945 -15.0996 -6.08558 -1.37945 18.5576
14637 1 -4.09139 -1.16854 -15.164 -4.09139 -1.16854 -15.164
7448 1 -16.251 -0.235757 -0.0895853 -16.251 -0.235757 -0.0895853
7424 1 -2.35034 -0.974382 -15.6454 -2.35034 32.6829 18.0118
46 1 -1.02831 -0.945228 -14.2491 -1.02831 -0.945228 -14.2491
6965 1 -16.7564 -15.3724 -13.3044 -16.7564 18.2848 20.3529
2429 1 -16.0484 -16.5946 -13.2969 -16.0484 -16.5946 20.3604
9308 1 -15.7662 -15.5685 -11.9148 17.891 -15.5685 -11.9148
9535 1 -13.944 -15.6535 -12.2697 19.7132 -15.6535 -12.2697
11146 1 -15.601 -15.2735 -13.7569 18.0562 -15.2735 19.9003
8767 1 -13.5949 -16.7963 -11.9948 20.0623 -16.7963 -11.9948
2624 1 -12.4935 -15.9904 -16.4132 -12.4935 -15.9904 17.2441
15758 1 -11.9446 -16.1069 -12.9972 21.7127 17.5504 -12.9972
1171 1 -10.9084 -15.4489 -13.5008 -44.5657 -15.4489 -13.5008
11325 1 -11.1125 -15.8362 -12.2142 22.5448 -15.8362 21.443
3110 1 -10.1239 -14.9762 -12.7255 -10.1239 -14.9762 20.9317
828 1 -8.64569 -14.5893 -12.4961 -8.64569 -14.5893 -12.4961
1743 1 -8.0332 -16.2252 -14.0349 -8.0332 -16.2252 -14.0349
1968 1 -6.82294 -16.3368 -13.1071 -6.82294 -16.3368 -13.1071
7646 1 -8.42622 -14.266 -13.7522 -8.42622 19.3913 19.9051
8379 1 -0.697982 -14.6628 -5.07559 -0.697982 -14.6628 -5.07559
15663 1 -3.67818 -15.9415 -12.4757 29.9791 17.7158 21.1815
6349 1 -4.32127 -16.7834 -11.2256 -4.32127 16.8738 -11.2256
4884 1 -3.42681 -0.189057 -0.356077 -3.42681 -0.189057 -0.356077
6597 1 -2.12096 -16.1038 -12.9031 -2.12096 17.5535 20.7541
14239 1 -0.706759 -15.7753 -12.9866 -0.706759 17.8819 -12.9866
11303 1 -16.0765 -12.7297 -0.933112 17.5807 -12.7297 -0.933112
13955 1 -16.5391 -14.4689 -12.2664 17.1181 19.1883 -12.2664
10007 1 -14.9513 -14.3524 -13.5646 18.706 -14.3524 -13.5646
761 1 -13.2857 -15.215 -13.6618 -13.2857 -15.215 -13.6618
1290 1 -11.5691 -14.1349 -12.8666 -11.5691 -14.1349 -12.8666
9845 1 -10.4628 -14.1283 -13.723 23.1945 -14.1283 -13.723
336 1 -9.50459 -13.6057 -13.6556 -9.50459 -13.6057 -13.6556
5388 1 -6.04833 -13.9061 -13.0793 -6.04833 19.7511 -13.0793
10691 1 -3.9695 -14.6806 -12.7151 29.6878 -14.6806 20.9422
5700 1 -4.71437 -15.4455 -14.4805 -4.71437 18.2118 -14.4805
1814 1 -2.93488 -15.0233 -13.6837 -2.93488 -15.0233 -13.6837
12351 1 -2.61786 -13.9667 -13.0888 31.0394 19.6905 -13.0888
3482 1 -0.834842 -14.459 -12.9946 -0.834842 19.1982 20.6626
2399 1 -16.6594 -13.4952 -13.0292 -16.6594 -13.4952 20.628
1740 1 -14.8553 -13.3967 -12.9088 18.8019 -13.3967 -12.9088
6879 1 -15.7564 -12.7832 -14.1188 -15.7564 20.8741 19.5385
7900 1 -13.981 -14.4162 -12.6949 -13.981 19.2411 20.9624
15064 1 -12.4839 -13.4258 -13.1518 21.1733 -13.4258 20.5055
13957 1 -11.295 -13.2137 -13.1765 22.3622 20.4436 -13.1765
8850 1 -10.2583 -13.4522 -12.7594 23.3989 -13.4522 -12.7594
523 1 -7.26543 -13.3023 -13.1678 -7.26543 -13.3023 -13.1678
10676 1 -7.07144 -12.0812 -13.0461 -7.07144 -12.0812 -13.0461
5217 1 -5.05541 -14.6481 -13.0204 -5.05541 19.0092 -13.0204
5159 1 -4.01751 -13.6496 -13.4882 -4.01751 20.0077 -13.4882
4680 1 -1.13344 -12.8196 -13.9991 -1.13344 20.8377 -13.9991
4720 1 -2.81887 -12.2964 -13.6478 -2.81887 21.3609 -13.6478
15834 1 -0.565417 -12.3268 -13.1359 -0.565417 -12.3268 20.5213
6381 1 -16.0824 -12.3092 -12.3348 -16.0824 21.348 21.3224
849 1 -14.5827 -12.2483 -14.4977 -14.5827 -12.2483 -14.4977
10172 1 -13.7152 -12.268 -13.3698 19.9421 -12.268 -13.3698
8786 1 -13.6299 -11.6237 -14.4354 20.0274 -11.6237 -14.4354
10492 1 -11.8606 -12.5736 -12.2314 21.7966 -12.5736 21.4259
5923 1 -10.7968 -11.7959 -14.0423 -10.7968 -11.7959 -14.0423
1435 1 -9.93667 -12.2178 -13.0297 -9.93667 -12.2178 -13.0297
1461 1 -8.33684 -11.4961 -12.8074 -8.33684 -11.4961 -12.8074
951 1 -5.54742 -12.6003 -13.4537 -5.54742 -12.6003 -13.4537
8860 1 -4.95476 -13.4095 -12.5379 -4.95476 -13.4095 -12.5379
5990 1 -3.10822 -10.3103 -14.6966 -3.10822 -10.3103 -14.6966
3683 1 -2.61766 -11.3108 -14.0989 -2.61766 -11.3108 19.5583
12009 1 -3.1431 -12.5048 -14.8016 -3.1431 -12.5048 18.8557
10111 1 -1.93853 -12.181 -12.741 -1.93853 -12.181 -12.741
44 1 -15.0794 -14.4621 -15.8866 -15.0794 -14.4621 17.7706
2548 1 -15.8097 -10.148 -13.4662 -15.8097 -10.148 20.1911
7931 1 -16.5514 -10.249 -12.7814 -16.5514 23.4082 20.8759
14266 1 -16.7028 -10.4538 -14.327 16.9544 23.2034 -14.327
10043 1 -14.946 -10.7412 -13.3017 18.7112 -10.7412 -13.3017
12587 1 -12.4783 -10.9848 -12.1391 21.1789 -10.9848 -12.1391
4852 1 -11.2516 -9.65429 -12.3917 -11.2516 24.003 -12.3917
11919 1 -11.1008 -10.6943 -13.2747 22.5564 -10.6943 20.3825
733 1 -8.04244 -11.404 -14.3291 -8.04244 -11.404 -14.3291
2147 1 -8.63014 -9.53629 -13.5191 -8.63014 -9.53629 20.1382
10984 1 -8.64874 -10.3859 -12.3053 25.0085 -10.3859 21.352
8036 1 -6.80975 -11.3205 -13.9674 -6.80975 22.3368 19.6898
6994 1 -4.03576 -10.33 -13.4518 -4.03576 -10.33 20.2054
6378 1 -2.78881 -9.46306 -13.6801 -2.78881 -9.46306 19.9771
8804 1 -1.45971 -10.2927 -13.331 -1.45971 -10.2927 -13.331
6416 1 -4.27466 -14.902 -15.9289 -4.27466 18.7552 17.7283
12056 1 -14.9483 -9.20828 -13.8318 -14.9483 -9.20828 19.8255
2361 1 -14.8709 -9.15818 -12.1396 -14.8709 -9.15818 21.5177
3528 1 -13.718 -9.50844 -12.8269 -13.718 -9.50844 -12.8269
740 1 -12.1255 -8.58726 -13.8427 -12.1255 -8.58726 -13.8427
899 1 -9.87109 -9.71842 -13.4988 -9.87109 -9.71842 -13.4988
3061 1 -8.76824 -8.24696 -13.1406 -8.76824 -8.24696 20.5166
12283 1 -7.315 -10.2153 -13.4009 -7.315 -10.2153 20.2563
1017 1 -5.71015 -9.09668 -11.5163 -5.71015 -9.09668 -11.5163
15516 1 -3.25835 -9.59535 -12.5195 30.3989 -9.59535 21.1377
4581 1 -2.14658 -8.87808 -12.8864 -2.14658 -8.87808 -12.8864
7279 1 -0.531547 -10.502 -13.642 -0.531547 -10.502 -13.642
9231 1 -1.53735 -5.85268 -0.612351 32.1199 -5.85268 -0.612351
8057 1 -13.7814 -8.10093 -12.1462 -13.7814 -8.10093 -12.1462
12226 1 -12.9191 -7.94459 -13.3003 -12.9191 -7.94459 20.3569
13798 1 -14.2544 -8.26882 -13.34 19.4028 25.3884 -13.34
192 1 -11.401 -8.66854 -13.0637 -11.401 -8.66854 -13.0637
2398 1 -11.9402 -6.66263 -13.5866 -11.9402 -6.66263 20.0707
5423 1 -10.9273 -9.20656 -13.8494 -10.9273 -9.20656 -13.8494
12169 1 -10.7285 -7.20748 -13.4177 -10.7285 -7.20748 -13.4177
6929 1 -10.4263 -8.37551 -12.3731 -10.4263 -8.37551 -12.3731
2801 1 -9.53435 -7.38636 -12.6802 -9.53435 -7.38636 20.9771
5155 1 -7.90679 -7.88445 -13.6083 -7.90679 25.7728 -13.6083
909 1 -7.5991 -7.64717 -12.0465 -7.5991 -7.64717 -12.0465
310 1 -5.00651 -8.19017 -13.4987 -5.00651 -8.19017 -13.4987
10259 1 -4.82415 -7.51664 -14.3311 -4.82415 -7.51664 -14.3311
9368 1 -4.4672 -6.30304 -13.3722 -4.4672 -6.30304 -13.3722
8172 1 -4.28162 -8.63331 -12.5761 -4.28162 -8.63331 -12.5761
12840 1 -3.21728 -7.24109 -13.2011 -3.21728 26.4162 -13.2011
797 1 -1.61328 -7.05592 -13.392 -1.61328 -7.05592 -13.392
12340 1 -0.319168 -7.28953 -13.4817 -0.319168 -7.28953 20.1756
97 1 -14.7488 -6.57098 -13.5187 -14.7488 -6.57098 -13.5187
9991 1 -14.6086 -5.40081 -12.6864 19.0486 -5.40081 -12.6864
12159 1 -13.6461 -6.86715 -14.9648 -13.6461 -6.86715 18.6925
741 1 -9.35151 -6.35367 -14.3477 -9.35151 -6.35367 -14.3477
13950 1 -7.48898 -6.42628 -12.8692 -7.48898 -6.42628 -12.8692
1590 1 -4.78522 -4.51799 -13.9319 -4.78522 -4.51799 -13.9319
4172 1 -6.67461 -6.49156 -14.4896 -6.67461 27.1657 -14.4896
13632 1 -6.20353 -6.3818 -13.0926 -6.20353 -6.3818 -13.0926
4566 1 -3.99161 -5.28761 -13.2642 -3.99161 28.3696 -13.2642
13477 1 -0.588255 -6.07396 -13.0778 -0.588255 27.5833 -13.0778
13161 1 -0.97846 -7.07404 -12.2188 -0.97846 -7.07404 -12.2188
4176 1 -15.6746 -5.55448 -13.1734 -15.6746 -5.55448 -13.1734
5279 1 -13.6036 -4.76963 -12.5408 -13.6036 -4.76963 -12.5408
4346 1 -15.8683 -4.12516 -13.7844 -15.8683 -4.12516 -13.7844
5522 1 -13.1643 -4.87213 -11.6517 -13.1643 -4.87213 -11.6517
10037 1 -12.5906 -5.49456 -13.4512 -12.5906 -5.49456 -13.4512
8524 1 -11.4536 -5.51847 -14.5134 22.2037 -5.51847 -14.5134
3363 1 -11.6542 -5.46516 -12.9064 -11.6542 -5.46516 20.7508
8097 1 -10.5993 -4.38885 -12.9554 -10.5993 -4.38885 20.7019
1975 1 -9.29357 -5.25978 -13.7228 -9.29357 -5.25978 -13.7228
570 1 -8.09998 -4.17562 -13.5358 -8.09998 -4.17562 -13.5358
5013 1 -8.01465 -4.66213 -12.0518 -8.01465 -4.66213 -12.0518
1408 1 -5.48767 -3.72812 -14.2571 -5.48767 -3.72812 -14.2571
5563 1 -4.66629 -5.11277 -12.5495 -4.66629 -5.11277 -12.5495
13603 1 -6.3853 -3.64811 -13.4538 -6.3853 -3.64811 -13.4538
9673 1 -3.38704 -4.25573 -12.8647 -3.38704 -4.25573 -12.8647
10824 1 -2.37564 -6.18258 -13.2042 -2.37564 -6.18258 20.4531
1806 1 -2.12445 -10.7099 -0.204211 -2.12445 -10.7099 -0.204211
8131 1 -0.79958 -5.05728 -13.4792 -0.79958 -5.05728 -13.4792
8657 1 -8.15699 -14.0739 -0.0978225 -8.15699 -14.0739 -0.0978225
13163 1 -15.9633 -2.65278 -13.6186 17.6939 -2.65278 -13.6186
7670 1 -14.1436 -3.86827 -12.7085 -14.1436 -3.86827 20.9488
12427 1 -15.2729 -3.38078 -13.1293 18.3843 -3.38078 -13.1293
392 1 -12.6645 -4.34644 -13.0597 -12.6645 -4.34644 -13.0597
8744 1 -11.4047 -4.08012 -13.8807 22.2526 -4.08012 -13.8807
6 1 -10.0759 -3.08827 -13.1987 -10.0759 -3.08827 -13.1987
2264 1 -9.64232 -4.21432 -13.5313 -9.64232 -4.21432 20.126
1032 1 -8.48226 -2.78944 -12.7374 -8.48226 -2.78944 -12.7374
1648 1 -6.09243 -2.55638 -14.0777 -6.09243 -2.55638 -14.0777
13501 1 -4.61461 -3.24027 -13.4865 -4.61461 -3.24027 -13.4865
9111 1 -3.38107 -2.52857 -12.6452 -3.38107 -2.52857 -12.6452
287 1 -0.919145 -3.10242 -13.7838 -0.919145 30.5548 -13.7838
13956 1 -16.3978 -0.264345 -12.9339 17.2595 -0.264345 -12.9339
13423 1 -16.5425 -1.14886 -13.9048 17.1147 -1.14886 -13.9048