ITEM: TIMESTEP
7500
ITEM: NUMBER OF ATOMS
16384
ITEM: BOX BOUNDS pp pp pp
-1.6828627036276380e+01 1.6828627036276380e+01
-1.6828627036276380e+01 1.6828627036276380e+01
-1.6828627036276380e+01 1.6828627036276380e+01
ITEM: ATOMS id type x y z xu yu zu
1421 1 -15.9158 -16.1793 -15.8832 -15.9158 -16.1793 -15.8832
2372 1 -13.836 -15.886 -16.1851 -13.836 -15.886 17.4721
7833 1 -11.3874 -15.2951 -16.2746 -11.3874 18.3622 17.3827
6190 1 -12.3746 -15.7047 -16.3258 -12.3746 17.9526 17.3314
6369 1 -9.29688 -15.9878 -16.0769 -9.29688 17.6695 17.5804
5342 1 -7.21473 -15.5989 -15.9705 -7.21473 18.0583 -15.9705
1497 1 -8.28298 -15.7426 -16.1297 -8.28298 -15.7426 -16.1297
2561 1 -6.28154 -16.4654 -15.9719 -6.28154 -16.4654 17.6853
7130 1 -4.62055 -16.3224 -16.4378 -4.62055 17.3349 17.2195
8260 1 -2.46091 -14.9598 -16.1 -2.46091 -14.9598 -16.1
3423 1 -1.26888 -15.0983 -15.7462 -1.26888 -15.0983 17.911
4947 1 -2.72525 -16.3025 -16.7667 -2.72525 17.3548 -16.7667
13252 1 -3.69879 -16.2653 -5.39863 -3.69879 17.3919 -5.39863
2354 1 -0.878442 -16.513 -16.2226 -0.878442 -16.513 17.4346
44 1 -14.972 -15.1333 -15.843 -14.972 -15.1333 17.8142
3581 1 -13.9007 -14.5702 -15.9746 -13.9007 -14.5702 17.6826
8662 1 -10.1748 -15.0716 -16.5314 23.4825 -15.0716 -16.5314
8965 1 -11.0804 -14.6332 -15.4413 22.5768 -14.6332 -15.4413
7456 1 -9.95171 -14.9157 -14.9673 -9.95171 18.7416 -14.9673
472 1 -7.6435 -14.484 -16.2621 -7.6435 -14.484 -16.2621
1723 1 -6.36589 -14.476 -16.0374 -6.36589 -14.476 -16.0374
13447 1 -4.03013 -14.3876 -15.6318 29.6271 19.2697 -15.6318
12146 1 -5.32917 -14.8699 -16.4359 -5.32917 -14.8699 17.2214
11421 1 -2.08701 -5.93102 -16.5967 31.5702 -5.93102 17.0606
5296 1 -16.2518 -14.2518 -16.6864 -16.2518 19.4055 -16.6864
3649 1 -14.8558 -13.3537 -15.6628 -14.8558 -13.3537 17.9945
2051 1 -13.8644 -12.9169 -16.5958 -13.8644 -12.9169 17.0615
7042 1 -13.2364 -12.9699 -15.3809 -13.2364 20.6874 18.2764
15615 1 -12.6907 -13.6361 -15.8877 -12.6907 20.0211 17.7696
3722 1 -10.1141 -12.6188 -15.9116 -10.1141 -12.6188 17.7456
7530 1 -10.8325 -13.8279 -16.4322 -10.8325 -13.8279 17.225
7734 1 -9.53338 -13.9224 -16.5731 -9.53338 19.7349 17.0841
1535 1 -9.01169 -13.754 -15.6422 -9.01169 -13.754 18.015
4687 1 -6.35116 -13.1886 -15.7545 -6.35116 20.4686 -15.7545
9383 1 -4.8753 -13.5397 -15.9836 -4.8753 -13.5397 -15.9836
9859 1 -4.02967 -12.3199 -16.6298 -4.02967 -12.3199 -16.6298
7311 1 -16.7439 -16.5756 -3.02463 -16.7439 17.0816 30.6326
6944 1 -1.55711 -12.4453 -15.7592 -1.55711 21.2119 17.8981
8540 1 -2.81449 -13.5079 -16.4015 -2.81449 -13.5079 -16.4015
9432 1 -0.856674 -13.6159 -15.9774 -0.856674 -13.6159 -15.9774
12420 1 -7.23887 -0.477055 -16.7017 26.4184 -0.477055 -16.7017
13271 1 -16.34 -11.3455 -15.4364 17.3172 22.3117 -15.4364
11877 1 -16.7994 -13.2913 -16.091 16.8579 -13.2913 17.5663
179 1 -12.9842 -12.1453 -15.9521 -12.9842 -12.1453 -15.9521
15631 1 -16.5214 -7.40965 -14.497 17.1359 26.2476 19.1602
4235 1 -11.1957 -12.0534 -15.6261 -11.1957 21.6038 18.0311
4859 1 -8.90828 -11.6542 -15.8685 -8.90828 22.003 -15.8685
6529 1 -7.81573 -12.8624 -15.7171 -7.81573 -12.8624 17.9402
4817 1 -6.76991 -11.8772 -15.6859 -6.76991 21.78 -15.6859
6275 1 -5.33882 -12.4904 -15.7515 -5.33882 -12.4904 -15.7515
8255 1 -3.35392 -11.8942 -15.4123 -3.35392 -11.8942 -15.4123
7740 1 -3.41655 -0.357177 -0.783411 -3.41655 -0.357177 -0.783411
9099 1 -0.285968 -11.7962 -16.1291 -0.285968 -11.7962 -16.1291
9190 1 -15.4349 -10.3577 -15.6968 18.2223 -10.3577 17.9605
12045 1 -14.5624 -10.3469 -16.4623 19.0949 -10.3469 17.195
5101 1 -14.8916 -11.7993 -15.9952 -14.8916 -11.7993 -15.9952
603 1 -12.9463 -10.4346 -16.0561 -12.9463 -10.4346 -16.0561
2341 1 -12.1543 -11.3341 -16.6501 -12.1543 -11.3341 17.0071
5503 1 -11.0133 -9.59179 -15.7453 -11.0133 24.0655 -15.7453
503 1 -10.2677 -10.9479 -16.1321 -10.2677 -10.9479 -16.1321
9790 1 -7.63347 -11.2907 -15.9074 -7.63347 -11.2907 -15.9074
5020 1 -2.34165 -0.0632232 -0.330636 -2.34165 -0.0632232 -0.330636
7644 1 -3.24753 -11.011 -16.3139 -3.24753 22.6463 17.3433
9890 1 -1.54789 -10.9553 -15.7629 -1.54789 -10.9553 -15.7629
7037 1 -1.30869 -11.5358 -16.5896 -1.30869 22.1214 17.0677
995 1 -1.69627 -9.69098 -15.867 -1.69627 -9.69098 -15.867
4114 1 -15.4 -16.6443 -3.06618 -15.4 17.0129 -3.06618
7279 1 -0.221212 -10.435 -15.4933 -0.221212 -10.435 -15.4933
10684 1 -15.4058 -9.42784 -16.0869 18.2514 -9.42784 17.5704
5025 1 -14.9787 -8.41507 -15.4524 -14.9787 -8.41507 -15.4524
15275 1 -13.8476 -8.40164 -15.3003 19.8097 -8.40164 18.3569
5986 1 -12.9013 -9.06815 -15.228 -12.9013 -9.06815 -15.228
1175 1 -11.8425 -9.07729 -16.4563 -11.8425 -9.07729 -16.4563
6523 1 -9.67873 -10.0684 -16.4492 -9.67873 23.5888 17.2081
13665 1 -0.129583 -15.8382 -15.6856 -0.129583 17.8191 -15.6856
12503 1 -8.58543 -9.24952 -16.0574 25.0718 24.4077 -16.0574
1438 1 -10.4281 -8.85816 -15.3669 -10.4281 -8.85816 -15.3669
10949 1 -9.21645 -8.57042 -16.6712 24.4408 -8.57042 16.986
2214 1 -6.87431 -9.5205 -15.451 -6.87431 -9.5205 18.2063
4995 1 -7.69155 -8.87318 -15.5838 -7.69155 -8.87318 -15.5838
7591 1 -13.8151 -0.17481 -8.59096 -13.8151 -0.17481 25.0663
7639 1 -5.95084 -9.01332 -16.2005 -5.95084 -9.01332 17.4568
1524 1 -3.96629 -9.96931 -15.4316 -3.96629 -9.96931 -15.4316
11149 1 -2.52816 -9.77966 -16.5973 -2.52816 -9.77966 17.06
8415 1 -0.74633 -9.27987 -15.5266 -0.74633 -9.27987 -15.5266
6772 1 -16.6778 -7.9359 -15.9679 -16.6778 -7.9359 17.6893
11975 1 -14.761 -7.46567 -16.3312 18.8962 -7.46567 17.326
985 1 -13.1485 -16.609 -1.21326 -13.1485 -16.609 -1.21326
4034 1 -12.8629 -7.91508 -16.2727 -12.8629 -7.91508 17.3845
12522 1 -11.0929 -8.08256 -15.7468 -11.0929 -8.08256 -15.7468
1639 1 -9.39542 -6.9927 -16.8241 -9.39542 -6.9927 -16.8241
4715 1 -7.13974 -8.2827 -14.5138 -7.13974 25.3746 -14.5138
2736 1 -8.39225 -7.51365 -16.1609 -8.39225 -7.51365 17.4963
7366 1 -7.43663 -7.71047 -16.7313 -7.43663 -7.71047 16.9259
8503 1 -6.3142 -7.38631 -16.1172 -6.3142 -7.38631 -16.1172
1895 1 -5.06786 -8.0118 -15.6994 -5.06786 -8.0118 -15.6994
11381 1 -3.4004 -9.13241 -14.9526 30.2569 -9.13241 18.7047
1481 1 -3.88288 -7.24909 -15.2689 -3.88288 -7.24909 -15.2689
1152 1 -1.35212 -6.98676 -15.4909 -1.35212 -6.98676 18.1664
1884 1 -0.853263 -7.86142 -16.2864 -0.853263 -7.86142 -16.2864
791 1 -14.8538 -5.92655 -15.9163 -14.8538 -5.92655 -15.9163
1912 1 -13.1126 -6.80463 -15.7304 -13.1126 -6.80463 -15.7304
2010 1 -11.9909 -6.87348 -15.9507 -11.9909 -6.87348 -15.9507
8616 1 -11.528 -5.77908 -16.5138 -11.528 -5.77908 -16.5138
8921 1 -12.3945 -5.49758 -15.8287 -12.3945 -5.49758 -15.8287
7239 1 -10.7203 -6.79972 -15.9943 -10.7203 26.8575 17.663
16305 1 -9.35596 -5.57092 -15.8145 -9.35596 -5.57092 17.8428
12190 1 -8.42687 -6.17618 -15.1224 -8.42687 -6.17618 18.5349
14116 1 -6.91032 -6.5593 -16.5494 26.7469 27.098 -16.5494
9471 1 -16.7539 -6.33931 -4.53806 -16.7539 -6.33931 -4.53806
2185 1 -5.77416 -6.18765 -16.0741 -5.77416 -6.18765 17.5832
5386 1 -3.02131 -6.23231 -15.693 -3.02131 27.4249 -15.693
2250 1 -2.45336 -7.42756 -16.1369 -2.45336 -7.42756 17.5204
7992 1 -0.991991 -6.25913 -16.5853 -0.991991 -6.25913 -16.5853
1965 1 -16.4352 -5.70638 -15.9048 -16.4352 -5.70638 -15.9048
9864 1 -14.14 -4.34424 -16.1398 -14.14 -4.34424 -16.1398
10069 1 -15.3361 -4.85904 -16.0804 18.3212 -4.85904 -16.0804
4810 1 -13.5846 -5.105 -16.664 -13.5846 -5.105 -16.664
11517 1 -9.52379 -4.35813 -15.9133 24.1335 -4.35813 17.744
5862 1 -0.480504 -0.53257 -6.54681 -34.1378 33.1247 -6.54681
12218 1 -7.77141 -4.67584 -16.1596 -7.77141 -4.67584 17.4976
5320 1 -6.69252 -5.34378 -15.6633 -6.69252 -5.34378 -15.6633
8203 1 -6.34673 -3.83092 -16.1738 -6.34673 -3.83092 17.4834
6214 1 -5.7246 -4.62857 -15.4756 -5.7246 -4.62857 18.1816
1690 1 -4.95223 -3.94878 -15.9008 -4.95223 -3.94878 -15.9008
3832 1 -3.54662 -5.15966 -16.5375 -3.54662 -5.15966 17.1198
15143 1 -1.88035 -5.91486 -15.1758 -1.88035 -5.91486 18.4815
1169 1 -2.4093 -4.39993 -16.2356 -2.4093 -4.39993 -16.2356
1014 1 -0.233771 -5.51025 -16.375 -0.233771 -5.51025 -16.375
116 1 -10.8655 -1.02146 -0.314728 -10.8655 -1.02146 -33.972
9678 1 -15.0717 -3.55478 -15.1917 18.5855 -3.55478 -15.1917
4005 1 -13.0637 -3.29869 -15.7211 -13.0637 -3.29869 17.9362
4724 1 -11.9305 -4.52257 -15.8229 -11.9305 -4.52257 -15.8229
5178 1 -12.0772 -3.16266 -15.48 -12.0772 -3.16266 -15.48
5740 1 -10.7423 -3.09476 -15.5024 -10.7423 -3.09476 -15.5024
2649 1 -10.6318 -3.45137 -16.8145 -10.6318 -3.45137 16.8427
1589 1 -8.60071 -3.42194 -16.0207 -8.60071 -3.42194 -16.0207
4321 1 -7.27663 -3.52085 -16.4966 -7.27663 -3.52085 -16.4966
10 1 -6.1716 -2.57896 -16.045 -6.1716 -2.57896 -16.045
4522 1 -3.84581 -3.35985 -16.618 -3.84581 -3.35985 -16.618
1135 1 -1.44969 -4.0333 -16.6281 -1.44969 -4.0333 -16.6281
11530 1 -0.732063 -3.03666 -16.1085 -0.732063 -3.03666 17.5488
5078 1 -3.94819 -16.565 -1.22449 -3.94819 17.0923 -1.22449
7984 1 -12.5797 -2.07666 -16.7127 -12.5797 31.5806 16.9445
4178 1 -14.4758 -3.03461 -16.3209 -14.4758 -3.03461 17.3364
13690 1 -11.1043 -2.26745 -16.6113 22.553 -2.26745 -16.6113
13904 1 -12.1427 -1.71548 -15.4957 -12.1427 -1.71548 -15.4957
13282 1 -9.4918 -2.00192 -15.7934 24.1655 -2.00192 -15.7934
4349 1 -10.9442 -1.31463 -15.4797 -10.9442 -1.31463 -15.4797
2952 1 -10.2366 -0.334019 -6.50465 -10.2366 -0.334019 -6.50465
6509 1 -7.10035 -1.85751 -15.9471 -7.10035 -1.85751 17.7102
2505 1 -6.07163 -1.45509 -15.8493 -6.07163 -1.45509 17.808
6646 1 -3.92653 -1.71029 -16.5121 -3.92653 -1.71029 17.1452
160 1 -2.29722 -3.03047 -15.974 -2.29722 -3.03047 -15.974
3802 1 -1.45401 -2.27792 -16.1153 -1.45401 -2.27792 17.542
2328 1 -0.0212682 -9.49499 -9.49565 -33.6785 -9.49499 24.1616
4094 1 -15.7303 -1.27252 -16.081 -15.7303 -1.27252 -16.081
8128 1 -13.5052 -1.58903 -15.9604 -13.5052 -1.58903 17.6968
7560 1 -0.0737244 -9.15899 -1.50646 -0.0737244 -9.15899 -1.50646
202 1 -13.5772 -16.7689 -9.58423 -13.5772 -16.7689 24.073
2135 1 -11.2533 -0.421898 -16.3952 -11.2533 -0.421898 17.2621
4345 1 -8.38126 -1.31657 -15.6044 -8.38126 -1.31657 -15.6044
1855 1 -9.70806 -0.778372 -15.7431 -9.70806 -34.4356 -15.7431
15854 1 -8.3747 -0.165214 -14.3675 -8.3747 -0.165214 19.2898
15013 1 -6.26119 -0.157766 -16.0377 -6.26119 -0.157766 17.6195
5308 1 -4.91561 -1.91875 -15.8223 -4.91561 -1.91875 -15.8223
14365 1 -14.9539 -16.7571 -9.76545 18.7034 16.9001 23.8918
5383 1 -2.55552 -0.385758 -16.0741 -2.55552 -0.385758 -16.0741
2891 1 -16.7234 -2.98837 -8.55085 -16.7234 -2.98837 25.1064
14342 1 -15.2004 -13.9283 -0.385006 18.4568 19.729 -0.385006
13563 1 -1.76249 -1.18051 -15.5463 -1.76249 -1.18051 -15.5463
15196 1 -16.091 -15.085 -15.3435 17.5663 18.5722 18.3138
2429 1 -15.4537 -16.3334 -14.1949 -15.4537 -16.3334 19.4624
469 1 -15.1001 -15.9332 -15.0711 -15.1001 -15.9332 -15.0711
15107 1 -14.22 -16.6368 -14.3976 19.4372 -16.6368 19.2597
2624 1 -12.9463 -15.194 -14.9458 -12.9463 -15.194 18.7115
74 1 -11.7776 -16.5051 -15.3196 -11.7776 -16.5051 -15.3196
5367 1 -10.5717 -16.4459 -15.1402 -10.5717 17.2113 -15.1402
1743 1 -9.57347 -15.9259 -15.0975 -9.57347 -15.9259 -15.0975
12478 1 -7.01495 -15.6431 -14.6678 26.6423 18.0142 -14.6678
934 1 -8.26477 -15.199 -14.9839 -8.26477 -15.199 -14.9839
8868 1 -5.50315 -16.2787 -14.6208 -5.50315 -16.2787 -14.6208
7538 1 -4.63302 -15.7003 -15.2377 -4.63302 17.957 18.4196
6416 1 -3.48385 -16.3136 -15.7351 -3.48385 17.3436 17.9221
8669 1 -2.63078 -15.6409 -13.8997 -2.63078 -15.6409 -13.8997
2501 1 -2.77239 -16.6573 -14.5914 -2.77239 -16.6573 19.0659
6363 1 -1.151 -15.9628 -14.7013 -1.151 17.6944 18.956
15396 1 -16.5917 -13.6391 -14.3843 17.0655 20.0182 19.273
1924 1 -14.8182 -15.0826 -13.4955 -14.8182 -15.0826 -13.4955
8100 1 -13.9745 -15.4251 -14.8025 -47.6317 18.2322 18.8548
1812 1 -12.2032 -14.1522 -15.1596 -12.2032 -14.1522 -15.1596
8046 1 -13.15 -16.2755 -13.6228 -13.15 17.3817 20.0345
4514 1 -9.2809 -14.1546 -14.2216 -9.2809 19.5026 -14.2216
16382 1 -6.31555 -14.9566 -14.3212 -6.31555 18.7007 -14.3212
1925 1 -4.52647 -14.1793 -14.338 -4.52647 -14.1793 -14.338
2126 1 -3.39046 -13.9594 -14.4678 -3.39046 -13.9594 19.1894
9630 1 -2.35985 -14.9674 -15.0277 -2.35985 -14.9674 -15.0277
11646 1 -0.864621 -14.842 -14.7962 -0.864621 -14.842 18.861
12827 1 -15.1844 -14.9201 -14.8852 -15.1844 18.7372 -14.8852
4219 1 -13.6551 -13.3372 -14.5492 -13.6551 20.32 -14.5492
13957 1 -11.6587 -12.8681 -13.8391 21.9986 20.7892 -13.8391
13813 1 -11.3782 -13.2159 -15.0097 22.2791 20.4413 -15.0097
3127 1 -7.13569 -13.9014 -14.9542 -7.13569 -13.9014 18.7031
11712 1 -8.18478 -13.488 -14.0467 25.4725 -13.488 19.6106
4689 1 -5.58304 -13.53 -14.6398 -5.58304 -13.53 -14.6398
357 1 -4.31523 -12.7992 -15.2218 -4.31523 -12.7992 -15.2218
12009 1 -3.08656 -12.9299 -15.2979 -3.08656 -12.9299 18.3593
4680 1 -2.15544 -13.7721 -14.7995 -2.15544 19.8852 -14.7995
8922 1 -0.0548308 -13.1773 -13.5613 -0.0548308 -13.1773 -13.5613
1431 1 -15.4965 -12.5773 -14.8885 -15.4965 -12.5773 -14.8885
849 1 -15.4829 -11.6572 -13.9574 -15.4829 -11.6572 -13.9574
8786 1 -14.9622 -11.3522 -14.9012 18.6951 -11.3522 -14.9012
4665 1 -12.4552 -12.3738 -14.5446 -12.4552 21.2835 -14.5446
10172 1 -14.1088 -12.1209 -14.5009 19.5485 -12.1209 -14.5009
5923 1 -10.003 -11.4269 -14.8889 -10.003 -11.4269 -14.8889
336 1 -10.803 -11.9494 -14.3486 -10.803 -11.9494 -14.3486
9435 1 -8.80998 -12.5697 -14.7322 24.8473 -12.5697 -14.7322
597 1 -7.47922 -12.4478 -14.6489 -41.1365 -12.4478 19.0083
2426 1 -5.23095 -11.1919 -15.3242 -5.23095 -11.1919 18.3331
8036 1 -6.48293 -11.4166 -14.3328 -6.48293 22.2407 19.3245
951 1 -5.54575 -12.0592 -14.0201 -5.54575 -12.0592 -14.0201
8173 1 -4.15295 -11.1826 -15.5887 -4.15295 22.4747 18.0686
3683 1 -2.24972 -11.305 -14.5192 -2.24972 -11.305 19.138
9183 1 -1.62783 -12.7253 -14.1848 -1.62783 -12.7253 -14.1848
9896 1 -0.277707 -12.5674 -15.216 -0.277707 -12.5674 -15.216
1375 1 -16.4734 -10.1186 -13.7348 -16.4734 -10.1186 -13.7348
10168 1 -8.438 -2.16762 -16.58 25.2193 -2.16762 17.0772
8215 1 -13.4519 -11.2199 -15.2543 -13.4519 22.4374 18.403
1536 1 -12.0883 -10.3178 -15.5143 -12.0883 -10.3178 -15.5143
2261 1 -10.5147 -10.0134 -14.7745 -10.5147 -10.0134 18.8827
1435 1 -11.403 -10.7513 -14.6018 -11.403 -10.7513 -14.6018
1802 1 -9.03005 -10.9763 -15.0342 -9.03005 -10.9763 -15.0342
1305 1 -7.26989 -10.3741 -14.9819 -7.26989 -10.3741 -14.9819
8083 1 -5.95324 -10.3831 -14.6809 -5.95324 -10.3831 18.9764
5990 1 -3.63624 -10.9782 -14.0157 -3.63624 -10.9782 -14.0157
148 1 -1.21794 -11.2775 -14.5342 -1.21794 -11.2775 -14.5342
10961 1 -1.41165 -9.82216 -14.5826 -1.41165 -9.82216 19.0746
749 1 -16.0846 -9.05668 -14.9242 -16.0846 -9.05668 -14.9242
16213 1 -0.239032 -2.35066 -1.85792 -0.239032 -2.35066 -1.85792
11112 1 -14.117 -10.5695 -14.8263 19.5403 -10.5695 18.831
808 1 -10.9232 -9.81763 -13.7614 -10.9232 -9.81763 -13.7614
14478 1 -11.9496 -9.42459 -14.2347 21.7076 24.2327 -14.2347
11538 1 -9.37764 -9.29163 -14.6158 24.2796 -9.29163 19.0415
1760 1 -7.80955 -9.49944 -14.0347 -7.80955 -9.49944 -14.0347
5290 1 -5.63427 -9.1504 -13.7187 -5.63427 -9.1504 -13.7187
11584 1 -6.1201 -8.86321 -14.7326 -6.1201 -8.86321 18.9247
1537 1 -4.6322 -9.56473 -14.1335 -4.6322 -9.56473 -14.1335
10054 1 -5.19088 -9.20932 -15.0687 -5.19088 -9.20932 -15.0687
12016 1 -3.58961 -9.82621 -13.9029 -3.58961 -9.82621 19.7543
7430 1 -2.24255 -8.27036 -15.1038 -2.24255 -8.27036 18.5534
6378 1 -3.08344 -10.7684 -15.189 -3.08344 -10.7684 18.4683
2623 1 -15.8942 -8.47371 -13.8918 -15.8942 -8.47371 19.7654
6319 1 -15.2264 -7.34859 -15.3505 -15.2264 26.3087 18.3067
10724 1 -14.3703 -7.82239 -14.6681 -14.3703 -7.82239 18.9891
3051 1 -14.3689 -6.64591 -15.4327 -14.3689 -6.64591 18.2246
14935 1 -12.7381 -7.83801 -14.0324 -12.7381 -7.83801 19.6249
6334 1 -12.9316 -7.78119 -15.1371 -12.9316 -7.78119 18.5201
740 1 -11.3237 -8.1469 -14.4662 -11.3237 -8.1469 -14.4662
480 1 -10.015 -8.34345 -14.2236 -10.015 -8.34345 -14.2236
741 1 -9.35804 -7.51947 -15.0352 -9.35804 -7.51947 -15.0352
1843 1 -8.57606 -8.18603 -14.2827 -8.57606 -8.18603 -14.2827
3889 1 -6.51604 -7.05631 -14.6909 -6.51604 -7.05631 -14.6909
310 1 -4.19317 -8.21265 -14.7596 -4.19317 -8.21265 -14.7596
2324 1 -1.5642 -7.4677 -14.5787 -1.5642 -7.4677 19.0786
58 1 -16.3371 -6.77474 -15.3929 -16.3371 -6.77474 -15.3929
9339 1 -14.983 -6.71436 -14.0962 18.6743 -6.71436 -14.0962
12159 1 -13.7477 -6.36008 -14.5265 -13.7477 -6.36008 19.1308
2398 1 -12.2624 -6.93768 -13.7949 -12.2624 -6.93768 19.8623
2611 1 -11.1977 -6.79846 -14.7901 -11.1977 -6.79846 18.8671
14402 1 -9.93992 -6.32708 -15.0091 23.7173 -6.32708 18.6481
4172 1 -7.40985 -6.7172 -14.9875 -7.40985 26.94 -14.9875
8056 1 -9.26164 -6.17369 -14.0217 -9.26164 -6.17369 19.6355
12350 1 -5.67778 -5.02459 -13.9533 -5.67778 28.6327 -13.9533
1887 1 -5.35828 -6.2698 -13.6482 -5.35828 -6.2698 -13.6482
9002 1 -2.77266 -7.31881 -14.6922 -2.77266 -7.31881 -14.6922
8505 1 -4.41291 -6.1208 -15.7141 -4.41291 -6.1208 -15.7141
2117 1 -3.40391 -5.7103 -14.3265 -3.40391 -5.7103 -14.3265
11717 1 -0.702782 -5.9652 -15.0208 -0.702782 -5.9652 -15.0208
797 1 -0.558472 -6.93081 -14.0664 -0.558472 -6.93081 -14.0664
10490 1 -16.1826 -4.69139 -15.167 17.4746 -4.69139 18.4902
4789 1 -13.8229 -4.48247 -14.3946 -13.8229 -4.48247 -14.3946
1894 1 -15.643 -5.56312 -14.6369 -15.643 -5.56312 -14.6369
3029 1 -13.8686 -5.46728 -15.5728 -13.8686 -5.46728 18.0845
3070 1 -11.045 -4.41516 -15.1697 -11.045 -4.41516 18.4876
914 1 -8.6923 -4.68955 -14.4447 -8.6923 -4.68955 -14.4447
2873 1 -7.65094 -4.79407 -14.8797 -7.65094 -4.79407 18.7775
1408 1 -6.56651 -4.40268 -14.5311 -6.56651 -4.40268 -14.5311
3130 1 -5.1387 -5.87703 -14.7711 -5.1387 -5.87703 18.8862
10574 1 -1.93486 -4.70514 -14.8559 -1.93486 -4.70514 18.8014
16068 1 -3.63298 -4.71875 -14.8488 30.0243 -4.71875 -14.8488
3881 1 -8.38295 -5.8704 -16.4367 -8.38295 -5.8704 17.2206
5094 1 -16.1066 -3.04666 -14.8556 -16.1066 -3.04666 -14.8556
12386 1 -15.6038 -3.86623 -14.1041 18.0535 -3.86623 -14.1041
6501 1 -12.4376 -4.59533 -14.7334 -12.4376 -4.59533 18.9239
15893 1 -13.0609 -2.7886 -14.5496 -13.0609 -2.7886 19.1077
8744 1 -11.491 -3.14044 -14.6225 22.1663 -3.14044 -14.6225
2264 1 -9.60958 -3.46155 -15.1286 -9.60958 -3.46155 18.5286
621 1 -8.27034 -3.57391 -14.2958 -8.27034 -3.57391 -14.2958
10958 1 -5.97379 -3.24275 -14.4765 -5.97379 -3.24275 19.1808
5248 1 -4.26472 -3.38884 -15.0558 -4.26472 -3.38884 -15.0558
573 1 -3.11032 -3.85471 -15.4187 -3.11032 -3.85471 -15.4187
4691 1 -3.3236 -3.68258 -14.0678 -3.3236 -3.68258 -14.0678
2049 1 -1.47777 -3.11482 -15.0616 -1.47777 -3.11482 18.5956
11978 1 -0.7712 -4.43736 -15.015 -0.7712 -4.43736 18.6422
9060 1 -16.4618 -1.81921 -15.0469 17.1955 -1.81921 -15.0469
10751 1 -14.7693 -2.46532 -14.8228 18.8879 -2.46532 18.8345
13163 1 -15.7317 -1.91926 -14.0821 17.9255 -1.91926 -14.0821
4082 1 -13.3934 -1.45094 -14.8537 -13.3934 -1.45094 -14.8537
1023 1 -12.1517 -2.01674 -13.8353 -12.1517 -2.01674 -13.8353
9221 1 -10.4663 -2.13643 -14.5911 -10.4663 -2.13643 -14.5911
4597 1 -8.38583 -2.65755 -15.1929 -8.38583 -2.65755 -15.1929
696 1 -7.05214 -3.14224 -15.1891 -7.05214 -3.14224 -15.1891
6851 1 -6.01863 -2.84442 -13.2669 -6.01863 -2.84442 20.3904
7703 1 -5.9964 -1.95744 -14.6393 -5.9964 -1.95744 19.018
4205 1 -3.74999 -2.24632 -15.3179 -3.74999 31.4109 -15.3179
11792 1 -2.30067 -2.51018 -13.8953 -2.30067 -2.51018 19.7619
5765 1 -0.894583 -1.64251 -14.1459 -0.894583 -1.64251 -14.1459
676 1 -2.66408 -1.97644 -15.1226 -2.66408 -1.97644 -15.1226
13384 1 -0.420611 -0.98242 -15.2006 -0.420611 -0.98242 18.4566
13191 1 -1.28678 -2.88844 -13.7449 -1.28678 -2.88844 19.9124
7181 1 -15.3638 -0.44378 -13.549 -15.3638 -0.44378 -13.549
7877 1 -15.0285 -0.705581 -14.9392 -15.0285 -0.705581 18.7181
4869 1 -13.2182 -0.424064 -14.3139 -13.2182 -0.424064 -14.3139
11361 1 -12.2416 -0.492251 -14.7805 21.4156 -0.492251 18.8767
6485 1 -10.0587 -1.26244 -14.2327 -10.0587 32.3948 19.4245
22 1 -9.11536 -1.44743 -14.5535 -9.11536 -1.44743 -14.5535
4470 1 -6.99278 -0.862 -15.249 -6.99278 -0.862 -15.249
9395 1 -7.72928 -1.30594 -14.2473 25.928 -1.30594 -14.2473
13301 1 -5.37132 -0.0498335 -15.0681 -5.37132 -0.0498335 -15.0681
6725 1 -5.02597 -1.61813 -14.4301 -5.02597 -1.61813 19.2272
7424 1 -3.44817 -1.13563 -15.0787 -3.44817 32.5216 18.5785
9308 1 -15.897 -16.2015 -12.881 17.7603 -16.2015 -12.881
2471 1 -8.33228 -13.3166 -16.7593 -8.33228 -13.3166 16.898
8152 1 -13.2915 -16.6963 -8.3273 -13.2915 16.961 25.33
2851 1 -13.7057 -15.5099 -12.8435 -13.7057 -15.5099 20.8138
8955 1 -12.0401 -16.3901 -13.1492 21.6172 17.2672 -13.1492
15758 1 -11.4622 -15.1565 -12.7749 22.1951 18.5008 -12.7749
1171 1 -11.1982 -16.3342 -14.1644 -44.8555 -16.3342 -14.1644
12861 1 -8.51541 -16.1657 -13.325 -8.51541 17.4916 -13.325
13962 1 -7.61029 -15.5771 -13.3167 26.047 -15.5771 -13.3167
6185 1 -6.7202 -16.0251 -13.5603 -6.7202 17.6322 20.097
11648 1 -5.55762 -15.875 -13.0483 -5.55762 -15.875 20.6089
13988 1 -16.7681 -6.73028 -3.40899 16.8892 -6.73028 -3.40899
1231 1 -2.4698 -15.885 -12.7096 -2.4698 -15.885 -12.7096
9096 1 -0.363194 -15.5556 -13.4636 -0.363194 -15.5556 -13.4636
14206 1 -0.509073 -12.8605 -4.93783 -0.509073 20.7967 -4.93783
10007 1 -16.4031 -15.1077 -13.5424 17.2541 -15.1077 -13.5424
4974 1 -2.85471 -1.37418 -16.281 -2.85471 -1.37418 -16.281
761 1 -15.3925 -14.9402 -12.557 -15.3925 -14.9402 -12.557
3063 1 -13.2753 -14.1551 -13.9749 -13.2753 -14.1551 19.6824
14931 1 -12.5208 -15.4021 -13.7753 21.1364 18.2552 19.8819
1251 1 -10.8598 -14.4785 -14.2381 -10.8598 19.1787 -14.2381
3110 1 -10.2087 -15.255 -12.171 -10.2087 -15.255 21.4863
4054 1 -10.1414 -15.4898 -13.6008 -10.1414 -15.4898 20.0564
124 1 -8.69377 -15.0692 -13.1059 -8.69377 -15.0692 -13.1059
828 1 -9.46548 -13.9328 -12.5977 -9.46548 -13.9328 -12.5977
7646 1 -7.79726 -14.427 -13.5807 -7.79726 19.2303 20.0765
13952 1 -7.09735 -14.4849 -12.3159 -7.09735 19.1724 -12.3159
5388 1 -5.74036 -14.6676 -13.3348 -5.74036 18.9896 -13.3348
5700 1 -4.01175 -15.541 -14.0918 -4.01175 18.1163 -14.0918
5217 1 -3.35012 -15.2128 -12.4558 -3.35012 18.4444 -12.4558
1814 1 -1.9706 -15.0787 -13.2192 -1.9706 -15.0787 -13.2192
12351 1 -1.11149 -13.9011 -14.0457 32.5458 19.7561 -14.0457
1740 1 -16.0176 -12.3543 -13.0908 17.6397 -12.3543 -13.0908
6879 1 -14.9993 -13.3095 -13.9587 -14.9993 20.3478 19.6985
767 1 -14.2647 -13.8598 -12.8398 -14.2647 -13.8598 -12.8398
14882 1 -13.4877 -12.7339 -13.5337 20.1696 20.9234 20.1236
1290 1 -12.3735 -13.8953 -13.4443 -12.3735 -13.8953 -13.4443
11370 1 -11.7094 -12.6567 -12.5076 21.9478 -12.6567 21.1497
9845 1 -10.3451 -13.1391 -13.2001 23.3121 -13.1391 -13.2001
2488 1 -9.1224 -13.14 -13.2527 -9.1224 -13.14 20.4045
523 1 -7.40613 -13.3592 -12.6111 -7.40613 -13.3592 -12.6111
4147 1 -6.95102 -13.4616 -13.7453 -6.95102 20.1957 -13.7453
3131 1 -5.7363 -13.419 -12.8414 -5.7363 -13.419 -12.8414
8402 1 -4.98852 -13.8654 -13.5017 -4.98852 -13.8654 -13.5017
9433 1 -3.76201 -14.2422 -13.0574 -3.76201 -14.2422 -13.0574
4720 1 -2.18289 -13.9068 -13.4626 -2.18289 19.7504 -13.4626
8558 1 -2.3276 -8.48414 -16.264 -2.3276 -8.48414 -16.264
8795 1 -15.9477 -11.212 -12.5875 17.7095 -11.212 -12.5875
11865 1 -14.5565 -12.2613 -13.1998 19.1007 -12.2613 20.4575
5720 1 -12.1154 -11.2885 -13.656 -12.1154 22.3687 -13.656
8850 1 -9.97128 -11.7981 -12.8151 23.686 -11.7981 -12.8151
7848 1 -9.12767 -11.964 -13.9202 -9.12767 21.6933 19.7371
733 1 -8.0525 -11.6105 -13.7161 -8.0525 -11.6105 -13.7161
10676 1 -6.72817 -11.6495 -13.1084 -6.72817 -11.6495 -13.1084
1521 1 -4.33234 -12.0923 -13.6371 -4.33234 -12.0923 -13.6371
3551 1 -2.98818 -12.8765 -14.1067 -2.98818 -12.8765 -14.1067
15864 1 -2.81895 -12.2581 -12.8515 -2.81895 21.3991 20.8057
10111 1 -1.08889 -11.5148 -13.3295 -1.08889 -11.5148 -13.3295
10043 1 -15.6124 -10.074 -12.2374 18.0448 -10.074 -12.2374
11606 1 -15.1474 -10.5606 -12.9885 18.5099 -10.5606 -12.9885
3528 1 -14.0793 -9.7837 -12.8757 -14.0793 -9.7837 -12.8757
11856 1 -13.0812 -10.9622 -14.0663 20.576 -10.9622 19.591
6302 1 -13.3686 -11.264 -12.9289 -13.3686 22.3932 -12.9289
1910 1 -12.11 -10.1738 -12.7652 -12.11 -10.1738 -12.7652
1761 1 -9.84429 -11.007 -13.7547 -9.84429 -11.007 -13.7547
5423 1 -10.7165 -10.7179 -12.9116 -10.7165 -10.7179 -12.9116
899 1 -8.84047 -10.0204 -13.9463 -8.84047 -10.0204 -13.9463
10984 1 -8.75305 -10.8575 -12.9827 24.9042 -10.8575 20.6746
1461 1 -7.52124 -10.7392 -13.9219 -7.52124 -10.7392 -13.9219
3074 1 -6.35552 -10.2681 -13.5699 -6.35552 -10.2681 20.0873
6380 1 -4.73125 -11.1092 -13.5279 -4.73125 -11.1092 -13.5279
4807 1 -5.40779 -10.9937 -12.6722 -5.40779 22.6636 -12.6722
6994 1 -2.74291 -10.2865 -12.9928 -2.74291 -10.2865 20.6644
2710 1 -2.32916 -11.2755 -13.4566 -2.32916 -11.2755 20.2006
344 1 -15.6719 -8.819 -12.2063 -15.6719 -8.819 -12.2063
12056 1 -14.9581 -9.17733 -13.5896 -14.9581 -9.17733 20.0676
6982 1 -14.0184 -8.69167 -13.7655 -14.0184 -8.69167 19.8917
9577 1 -12.8342 -9.49936 -13.2816 20.823 -9.49936 -13.2816
12169 1 -11.3886 -8.81645 -13.2482 -11.3886 -8.81645 -13.2482
6929 1 -9.8051 -9.90108 -13.3679 -9.8051 -9.90108 -13.3679
2147 1 -8.23088 -9.39886 -12.7602 -8.23088 -9.39886 20.897
9124 1 -7.88178 -8.33728 -13.4717 -7.88178 -8.33728 -13.4717
13517 1 -4.38669 -7.84851 -12.9559 -4.38669 25.8087 -12.9559
4796 1 -1.5283 -8.53131 -14.0871 -1.5283 -8.53131 -14.0871
8804 1 -2.37665 -9.50079 -13.9693 -2.37665 -9.50079 -13.9693
15516 1 -2.04656 -9.62831 -12.6821 31.6107 -9.62831 20.9752
14489 1 -0.287173 -9.56818 -13.9686 -0.287173 24.0891 19.6886
335 1 -14.7534 -7.62332 -13.4401 -14.7534 -7.62332 -13.4401
12226 1 -12.552 -8.3796 -12.9304 -12.552 -8.3796 20.7268
4978 1 -11.2344 -7.74393 -13.2124 -11.2344 -7.74393 -13.2124
3405 1 -9.3073 -8.15077 -13.3657 -9.3073 -8.15077 20.2915
3061 1 -8.35001 -7.82831 -12.2332 -8.35001 -7.82831 21.4241
2054 1 -9.83302 -7.19402 -13.6992 -9.83302 -7.19402 19.958
5155 1 -7.69317 -7.19435 -13.7141 -7.69317 26.4629 -13.7141
751 1 -6.44446 -7.70168 -13.8952 -6.44446 -7.70168 -13.8952
5115 1 -7.21433 -7.3313 -12.3005 -7.21433 -7.3313 -12.3005
4295 1 -5.66231 -8.69324 -12.5962 -5.66231 -8.69324 -12.5962
12840 1 -4.2922 -6.67918 -12.4665 -4.2922 26.9781 -12.4665
13632 1 -4.63246 -7.34262 -14.199 -4.63246 -7.34262 -14.199
10259 1 -2.79879 -8.18878 -14.0044 -2.79879 -8.18878 -14.0044
3004 1 -2.06942 -7.19954 -13.6796 -2.06942 -7.19954 19.9777
460 1 -2.2495 -1.21896 -0.691775 -2.2495 -1.21896 -0.691775
4581 1 -1.10683 -7.81681 -13.2174 -1.10683 -7.81681 -13.2174
15340 1 -0.284559 -8.21262 -12.2874 -0.284559 -8.21262 21.3699
15950 1 -16.7257 -5.96693 -13.6838 16.9315 -5.96693 19.9735
97 1 -15.7996 -6.78164 -13.0914 -15.7996 -6.78164 -13.0914
10037 1 -13.6563 -7.47887 -13.1624 -13.6563 -7.47887 -13.1624
8524 1 -13.0999 -5.55265 -13.7618 20.5574 -5.55265 -13.7618
3363 1 -11.6841 -5.85406 -13.2512 -11.6841 -5.85406 20.406
10003 1 -12.528 -5.89204 -12.6588 21.1292 -5.89204 -12.6588
2801 1 -10.4754 -6.36601 -12.9804 -10.4754 -6.36601 20.6769
13950 1 -8.29439 -6.54274 -12.9175 -8.29439 -6.54274 -12.9175
3005 1 -7.03467 -6.29486 -13.6639 -7.03467 -6.29486 19.9934
11445 1 -6.89017 -4.99481 -13.1879 26.7671 -4.99481 20.4694
10693 1 -6.01166 -7.14507 -13.0895 27.6456 -7.14507 20.5678
1625 1 -2.31917 -6.71837 -12.2512 -2.31917 -6.71837 -12.2512
15509 1 -1.97467 -5.99223 -13.285 -1.97467 -5.99223 20.3723
1798 1 -1.00535 -5.07177 -14.1346 -1.00535 -5.07177 -14.1346
13477 1 -0.997932 -6.94493 -12.4165 -0.997932 26.7123 -12.4165
4346 1 -16.7479 -4.27896 -14.2613 -16.7479 -4.27896 -14.2613
4176 1 -15.9439 -5.25231 -12.8014 -15.9439 -5.25231 -12.8014
7670 1 -15.0178 -5.07032 -13.2537 -15.0178 -5.07032 20.4036
9133 1 -14.2727 -5.7303 -13.3889 19.3846 -5.7303 -13.3889
9266 1 -11.6307 -4.85214 -14.1079 22.0265 -4.85214 -14.1079
15923 1 -10.3713 -5.42985 -14.6481 23.286 -5.42985 19.0092
1975 1 -9.79059 -5.01991 -13.1083 -9.79059 -5.01991 -13.1083
5089 1 -8.84903 -4.51902 -13.281 -8.84903 -4.51902 -13.281
570 1 -7.96609 -5.50289 -13.6918 -7.96609 -5.50289 -13.6918
9368 1 -4.26709 -5.57904 -13.3115 -4.26709 -5.57904 -13.3115
1590 1 -4.27736 -4.3876 -13.7226 -4.27736 -4.3876 -13.7226
4566 1 -3.3757 -5.84423 -12.5605 -3.3757 27.813 -12.5605
1702 1 -2.16652 -4.99993 -13.4663 -2.16652 -4.99993 -13.4663
8131 1 -0.446538 -4.0305 -13.9425 -0.446538 -4.0305 -13.9425
3468 1 -16.7881 -3.41565 -13.0505 -16.7881 -3.41565 20.6068
4903 1 -15.1518 -3.98951 -12.9026 -15.1518 -3.98951 -12.9026
12427 1 -15.8905 -2.71561 -13.2583 17.7668 -2.71561 -13.2583
2303 1 -12.4659 -4.4803 -13.4513 -12.4659 -4.4803 20.2059
8062 1 -13.6037 -4.71423 -12.9221 -13.6037 -4.71423 20.7352
9429 1 -11.8245 -3.23074 -13.4242 21.8327 -36.888 -13.4242
8097 1 -10.1828 -3.72653 -13.8321 -10.1828 -3.72653 19.8252
1032 1 -9.68573 -3.5264 -12.4094 -9.68573 -3.5264 -12.4094
1866 1 -8.5104 -3.27209 -12.8781 -8.5104 -3.27209 -12.8781
13603 1 -7.32755 -3.23035 -13.6143 -7.32755 -3.23035 -13.6143
6588 1 -5.46349 -4.03006 -13.1656 -5.46349 -4.03006 20.4917
13501 1 -5.18677 -4.04358 -14.4085 -5.18677 -4.04358 -14.4085
9673 1 -4.27761 -3.32752 -12.8252 -4.27761 -3.32752 -12.8252
5538 1 -2.27779 -3.5559 -13.1709 -2.27779 -3.5559 -13.1709
12615 1 -0.237084 -2.93145 -13.4531 -0.237084 30.7258 -13.4531
81 1 -4.34225 -6.00434 -16.7898 -4.34225 -6.00434 -16.7898
11013 1 -13.8334 -3.62001 -13.5059 19.8239 -3.62001 20.1513
266 1 -14.4431 -1.54958 -14.1102 -14.4431 -1.54958 -14.1102
737 1 -13.0602 -2.69071 -13.268 -13.0602 -2.69071 -13.268
9756 1 -9.30486 -2.73567 -14.0093 24.3524 -36.3929 -14.0093
13678 1 -9.65764 -1.53404 -13.2306 -9.65764 -1.53404 -13.2306
9303 1 -8.1671 -2.35197 -13.7157 25.4902 -2.35197 -13.7157
1882 1 -7.88356 -1.44702 -12.6175 -7.88356 -1.44702 -12.6175
1648 1 -5.11497 -2.79108 -13.829 -5.11497 -2.79108 -13.829
5052 1 -4.95351 -1.65832 -13.308 -4.95351 -1.65832 -13.308
324 1 -3.64451 -1.84412 -13.4844 -3.64451 -1.84412 -13.4844
9111 1 -2.62011 -1.17945 -13.2791 -2.62011 -1.17945 -13.2791
287 1 -0.332924 -1.15952 -13.064 -0.332924 32.4977 -13.064
13423 1 -16.7165 -0.328212 -13.1959 16.9408 -0.328212 -13.1959
12354 1 -14.9898 -1.49075 -12.9862 18.6675 -1.49075 -12.9862
2936 1 -14.2291 -0.333724 -13.7182 -14.2291 -0.333724 19.9391
6981 1 -13.5625 -0.472839 -12.7222 -13.5625 -0.472839 20.935