ITEM: TIMESTEP
4000
ITEM: NUMBER OF ATOMS
16384
ITEM: BOX BOUNDS pp pp pp
-1.6828627036276380e+01 1.6828627036276380e+01
-1.6828627036276380e+01 1.6828627036276380e+01
-1.6828627036276380e+01 1.6828627036276380e+01
ITEM: ATOMS id type x y z xu yu zu
671 1 -14.9623 -16.0316 -15.4882 -14.9623 -16.0316 -15.4882
130 1 -14.6992 -16.4963 -16.8283 -14.6992 -16.4963 -16.8283
2851 1 -13.6513 -16.0956 -14.7042 -13.6513 -16.0956 18.953
554 1 -13.0952 -15.9451 -15.9949 -13.0952 -15.9451 -15.9949
4743 1 -3.86319 -0.272659 -2.99178 -3.86319 -0.272659 -2.99178
7456 1 -11.0092 -16.1306 -15.1814 -11.0092 17.5267 -15.1814
7130 1 -7.80394 -15.0232 -16.6653 -7.80394 18.634 16.9919
7332 1 -7.93501 -15.9979 -16.0365 -7.93501 17.6594 17.6207
5758 1 -0.26072 -9.63531 -1.01971 -0.26072 24.0219 -1.01971
12571 1 -2.04012 -16.5375 -15.4678 -2.04012 17.1198 -15.4678
7337 1 -0.926336 -16.489 -16.7431 -0.926336 17.1682 16.9141
11649 1 -15.9844 -14.6023 -15.8925 17.6729 -14.6023 17.7648
469 1 -14.5868 -14.1231 -16.099 -14.5868 -14.1231 -16.099
15107 1 -13.3583 -14.8021 -15.568 20.2989 -14.8021 18.0892
8100 1 -12.2383 -13.8094 -16.0707 -45.8955 19.8478 17.5866
3063 1 -11.9691 -14.7912 -15.6254 -11.9691 -14.7912 18.0318
4514 1 -9.46325 -15.2445 -15.91 -9.46325 18.4128 -15.91
9435 1 -7.79413 -14.0067 -15.6241 25.8631 -14.0067 -15.6241
1535 1 -8.20764 -14.0292 -16.6877 -8.20764 -14.0292 16.9696
3127 1 -6.43227 -13.7957 -15.4688 -6.43227 -13.7957 18.1885
7538 1 -5.51345 -15.2803 -15.4596 -5.51345 18.377 18.1977
16382 1 -5.93924 -14.6838 -14.7769 -5.93924 18.9735 -14.7769
2471 1 -5.33284 -14.2343 -15.9989 -5.33284 -14.2343 17.6584
7442 1 -16.2727 -0.365343 -11.3453 17.3845 -0.365343 22.312
12146 1 -3.95548 -14.3088 -16.2388 -3.95548 -14.3088 17.4185
8260 1 -3.03078 -15.332 -16.0983 -3.03078 -15.332 -16.0983
15279 1 -1.02681 -15.1008 -16.343 -1.02681 18.5565 17.3142
6425 1 -1.38066 -16.7212 -3.02258 -1.38066 16.9361 -3.02258
9407 1 -13.8816 -14.4166 -16.8113 19.7757 -14.4166 -16.8113
6579 1 -12.9392 -13.0911 -16.434 -12.9392 20.5662 17.2232
1419 1 -6.09925 -16.6917 -7.72239 -6.09925 -16.6917 -7.72239
7540 1 -2.21165 -16.7399 -1.99848 -2.21165 16.9173 -1.99848
11190 1 -10.0533 -12.8505 -16.1467 -10.0533 -12.8505 17.5105
13447 1 -5.46431 -13.2104 -16.3923 28.1929 20.4468 -16.3923
357 1 -4.37003 -13.4421 -15.2817 -4.37003 -13.4421 -15.2817
6861 1 -0.694169 -16.6769 -0.313856 -0.694169 16.9804 -0.313856
8255 1 -3.4598 -12.5916 -15.7363 -3.4598 -12.5916 -15.7363
6688 1 -0.154072 -4.57265 -3.2106 -0.154072 -4.57265 -3.2106
9099 1 -1.83459 -13.5952 -15.8995 -1.83459 -13.5952 -15.8995
8540 1 -0.626107 -13.9923 -15.3461 -0.626107 -13.9923 -15.3461
8878 1 -0.710385 -13.3649 -16.3013 -0.710385 -13.3649 17.356
12696 1 -15.3009 -11.0021 -15.4307 18.3564 22.6552 -15.4307
3649 1 -14.2474 -11.0906 -15.4941 -14.2474 -11.0906 18.1632
1978 1 -14.0551 -12.3367 -15.6717 -14.0551 -12.3367 -15.6717
4219 1 -12.6073 -11.7245 -15.4466 -12.6073 21.9328 -15.4466
1251 1 -10.1676 -12.5323 -14.6445 -10.1676 21.125 -14.6445
16257 1 -15.0908 -0.563279 -1.6637 18.5665 -0.563279 31.9936
9137 1 -9.16883 -12.7973 -15.4327 -9.16883 -12.7973 -15.4327
2426 1 -6.38081 -12.0786 -16.3409 -6.38081 -12.0786 17.3164
12433 1 -6.46919 -16.6214 -3.14571 -6.46919 17.0359 -3.14571
642 1 -1.68173 -11.904 -16.3842 -1.68173 -11.904 -16.3842
1589 1 -8.64747 -3.64777 -16.3408 -8.64747 -3.64777 -16.3408
2548 1 -15.0774 -10.947 -13.8441 -15.0774 -10.947 19.8131
16141 1 -15.2505 -9.46807 -15.9473 18.4067 -9.46807 17.7099
13271 1 -13.8848 -10.3541 -14.4272 19.7725 23.3031 -14.4272
179 1 -13.2531 -10.6675 -16.7249 -13.2531 -10.6675 -16.7249
4235 1 -9.75373 -11.5279 -16.1369 -9.75373 22.1293 17.5204
503 1 -9.45776 -9.683 -15.7389 -9.45776 -9.683 -15.7389
6523 1 -8.78139 -10.8929 -15.5642 -8.78139 22.7644 18.093
1426 1 -8.24551 -11.3133 -16.4759 -8.24551 -11.3133 -16.4759
6529 1 -7.66841 -10.4059 -15.6855 -7.66841 -10.4059 17.9717
1537 1 -6.58093 -10.435 -15.8551 -6.58093 -10.435 -15.8551
8402 1 -5.50548 -12.6087 -15.5747 -5.50548 -12.6087 -15.5747
6944 1 -2.44431 -11.7855 -15.5445 -2.44431 21.8718 18.1127
11149 1 -4.03495 -9.85215 -15.8593 -4.03495 -9.85215 17.798
12244 1 -2.0686 -9.23839 -16.5146 31.5887 -9.23839 17.1427
4820 1 -10.1885 -0.186063 -8.38752 -10.1885 -0.186063 -8.38752
394 1 -16.292 -9.91682 -15.9384 -16.292 -9.91682 -15.9384
6489 1 -1.07712 -12.3471 -6.49918 -1.07712 21.3102 -6.49918
13617 1 -12.2875 -8.69622 -16.5052 -12.2875 24.961 -16.5052
2341 1 -10.592 -10.2077 -15.5459 -10.592 -10.2077 18.1114
1438 1 -10.1417 -8.0568 -15.6575 -10.1417 -8.0568 -15.6575
7530 1 -8.5793 -9.83302 -15.2396 -8.5793 -9.83302 18.4176
11161 1 -16.7735 -7.89733 -16.5218 16.8838 -7.89733 17.1355
1305 1 -6.35891 -9.49272 -14.8432 -6.35891 -9.49272 -14.8432
12124 1 -0.227438 -0.292223 -4.19711 -0.227438 -0.292223 -4.19711
10054 1 -4.90401 -9.97985 -16.5025 -4.90401 -9.97985 -16.5025
3889 1 -3.48743 -8.78222 -16.6841 -3.48743 -8.78222 -16.6841
16381 1 -10.6178 -0.529201 -3.05732 23.0395 -0.529201 -3.05732
12192 1 -14.8308 -7.94503 -16.245 18.8265 -7.94503 17.4122
14935 1 -13.4429 -6.79359 -15.8349 -13.4429 -6.79359 17.8224
335 1 -14.6965 -8.08695 -14.9021 -14.6965 -8.08695 -14.9021
5703 1 -13.7819 -1.0057 -8.95042 -13.7819 -1.0057 -8.95042
5025 1 -13.7999 -8.48789 -15.2871 -13.7999 -8.48789 -15.2871
1639 1 -9.28793 -6.95344 -16.1985 -9.28793 -6.95344 -16.1985
4034 1 -10.9597 -8.26423 -16.5738 -10.9597 -8.26423 17.0834
938 1 -13.3922 -0.955832 -0.654554 -13.3922 -0.955832 -0.654554
12503 1 -8.8088 -7.92655 -15.9963 24.8485 25.7307 -15.9963
1760 1 -7.40006 -8.87139 -15.6942 -7.40006 -8.87139 -15.6942
4715 1 -6.99604 -7.55355 -15.7711 -6.99604 26.1037 -15.7711
8503 1 -5.54737 -7.88847 -16.2197 -5.54737 -7.88847 -16.2197
12289 1 -2.17386 -6.81053 -15.6414 -2.17386 26.8467 18.0159
11078 1 -3.02213 -7.25773 -16.2494 -3.02213 -7.25773 17.4079
9002 1 -1.18283 -8.18167 -16.0417 -1.18283 -8.18167 -16.0417
1256 1 -0.325774 -7.36503 -15.4576 -0.325774 -7.36503 -15.4576
1798 1 -1.30109 -5.74137 -15.4515 -1.30109 -5.74137 -15.4515
7181 1 -15.8234 -0.631353 -16.344 -15.8234 -0.631353 -16.344
7964 1 -15.5338 -6.74906 -16.6213 -15.5338 26.9082 17.0359
2623 1 -14.7356 -6.71593 -16.0134 -14.7356 -6.71593 17.6438
14402 1 -12.2362 -6.15568 -15.559 21.4211 -6.15568 18.0982
6982 1 -13.6317 -7.72541 -14.5351 -13.6317 -7.72541 19.1222
4648 1 -12.716 -1.61025 -16.7391 -12.716 -1.61025 -16.7391
13798 1 -11.5572 -7.33033 -14.6743 22.1001 26.3269 -14.6743
2611 1 -11.0144 -6.58138 -15.4547 -11.0144 -6.58138 18.2025
4653 1 -9.68079 -0.554164 -6.55937 -9.68079 -0.554164 -6.55937
2873 1 -9.05041 -6.27786 -15.3949 -9.05041 -6.27786 18.2623
10609 1 -16.3 -0.518561 -1.68777 17.3573 -0.518561 -1.68777
16213 1 -1.56065 -0.308223 -1.83525 -1.56065 -0.308223 -1.83525
1481 1 -5.19709 -6.54012 -16.188 -5.19709 -6.54012 -16.188
81 1 -4.18651 -5.78481 -16.6455 -4.18651 -5.78481 -16.6455
12633 1 -0.034769 -3.68123 -2.57368 -0.034769 -3.68123 -2.57368
1625 1 -2.35321 -5.59329 -15.2003 -2.35321 -5.59329 -15.2003
16145 1 -8.47886 -15.9178 -0.046084 25.1784 17.7394 33.6112
12044 1 -16.7321 -10.7449 -0.864664 16.9252 -10.7449 -0.864664
773 1 -5.64424 -16.5549 -13.4062 -5.64424 -16.5549 -13.4062
1953 1 -15.3638 -5.52158 -16.2534 -15.3638 -5.52158 -16.2534
3029 1 -13.3659 -4.87581 -15.8769 -13.3659 -4.87581 17.7804
11112 1 -14.8793 -5.61183 -15.2515 18.7779 -5.61183 18.4057
1171 1 -9.63368 -16.3804 -13.9018 -43.2909 -16.3804 -13.9018
11559 1 -0.315548 -11.5888 -0.390932 -0.315548 -11.5888 -0.390932
7227 1 -9.98505 -4.95627 -16.1725 -9.98505 -4.95627 -16.1725
8056 1 -7.73673 -5.38511 -15.1026 -7.73673 -5.38511 18.5546
1094 1 -6.6067 -5.41793 -16.6859 -6.6067 -5.41793 -16.6859
2185 1 -5.24939 -6.33153 -14.8378 -5.24939 -6.33153 18.8194
3424 1 -5.03482 -3.95607 -16.3898 -5.03482 -3.95607 17.2674
5320 1 -5.48271 -4.97117 -16.1026 -5.48271 -4.97117 -16.1026
13292 1 -2.51493 -4.13405 -16.3162 -2.51493 -4.13405 -16.3162
1169 1 -1.42773 -4.69707 -16.4675 -1.42773 -4.69707 -16.4675
10751 1 -15.2817 -2.90189 -15.6982 18.3755 -2.90189 17.9591
6319 1 -14.4859 -5.91024 -16.7015 -14.4859 27.747 16.9557
15029 1 -12.8296 -16.7148 -16.71 -12.8296 -16.7148 16.9473
3468 1 -13.7642 -2.99063 -15.7689 -13.7642 -2.99063 17.8884
9678 1 -12.2696 -3.93256 -16.4019 21.3876 -3.93256 -16.4019
4724 1 -10.8028 -4.2805 -16.2676 -10.8028 -4.2805 -16.2676
4597 1 -7.71253 -3.42017 -15.4013 -7.71253 -3.42017 -15.4013
10 1 -7.03882 -2.69492 -16.034 -7.03882 -2.69492 -16.034
5248 1 -6.04211 -3.06871 -16.3146 -6.04211 -3.06871 -16.3146
6214 1 -3.83711 -4.4903 -16.1567 -3.83711 -4.4903 17.5005
2049 1 -2.17282 -2.83096 -16.6372 -2.17282 -2.83096 17.0201
13191 1 -0.467434 -2.64431 -16.181 -0.467434 -2.64431 17.4763
829 1 -15.6872 -3.21335 -16.624 -15.6872 -3.21335 -16.624
4094 1 -15.9336 -1.82332 -16.1879 -15.9336 -1.82332 -16.1879
4973 1 -14.2786 -1.01243 -15.6648 -14.2786 -1.01243 -15.6648
2303 1 -12.1417 -2.75723 -16.3036 -12.1417 -2.75723 17.3537
5419 1 -11.0166 -1.78469 -16.7795 -11.0166 -1.78469 -16.7795
13690 1 -11.1374 -2.88133 -15.9595 22.5199 -2.88133 -15.9595
11507 1 -9.55016 -4.35245 -15.0264 24.1071 -4.35245 18.6309
16122 1 -9.35661 -2.59503 -16.2163 -9.35661 -2.59503 17.4409
2110 1 -7.75054 -1.91723 -16.6497 -7.75054 -1.91723 17.0076
160 1 -5.12311 -2.30766 -16.4925 -5.12311 -2.30766 -16.4925
1690 1 -4.93667 -3.23191 -15.4257 -4.93667 -3.23191 -15.4257
9268 1 -16.4946 -0.873234 -4.93413 17.1626 -0.873234 -4.93413
3327 1 -6.4915 -0.181804 -10.7362 -6.4915 -0.181804 -10.7362
2142 1 0.0286891 -1.02562 -15.2202 0.0286891 -1.02562 18.4371
5941 1 -2.05113 -1.40312 -16.1526 -2.05113 -1.40312 -16.1526
1119 1 -0.362361 -1.14658 -16.7547 -0.362361 -1.14658 -16.7547
9060 1 -16.5468 -1.04318 -14.9266 17.1104 -1.04318 -14.9266
243 1 -0.762318 -0.186324 -5.37477 -0.762318 -0.186324 -5.37477
2 1 -2.70351 -0.085625 -2.51828 -2.70351 -0.085625 -2.51828
6485 1 -10.5138 -0.459508 -15.6527 -10.5138 33.1977 18.0046
12420 1 -9.07461 -0.10884 -16.3186 24.5826 -0.10884 -16.3186
6430 1 -7.02426 -0.380814 -14.4747 -7.02426 -0.380814 19.1826
7703 1 -8.11023 -0.704223 -16.1909 -8.11023 -0.704223 17.4664
5308 1 -5.67209 -1.05397 -15.9932 -5.67209 -1.05397 -15.9932
1093 1 -3.54076 -0.5452 -16.6779 -3.54076 -0.5452 -16.6779
573 1 -2.78729 -1.69144 -15.0214 -2.78729 -1.69144 -15.0214
13301 1 -3.83553 -0.498016 -13.1274 -3.83553 -0.498016 -13.1274
2429 1 -16.1127 -15.7965 -13.3021 -16.1127 -15.7965 20.3552
9535 1 -14.9471 -15.9207 -13.7069 18.7101 -15.9207 -13.7069
8834 1 -0.0523874 -3.16778 -7.53297 -0.0523874 -3.16778 -7.53297
15758 1 -13.2388 -15.5092 -13.105 20.4184 18.148 -13.105
13845 1 -11.5377 -16.1629 -13.0591 22.1195 17.4943 -13.0591
11211 1 -15.9917 -8.46322 -0.726512 17.6656 -8.46322 -0.726512
611 1 -16.5881 -7.2675 -7.4012 -16.5881 -7.2675 -7.4012
74 1 -9.56949 -16.3124 -15.0317 -9.56949 -16.3124 -15.0317
8868 1 -6.78122 -16.2397 -15.401 -6.78122 -16.2397 -15.401
11648 1 -5.38225 -16.0914 -14.3868 -5.38225 -16.0914 19.2704
6376 1 -4.59426 -16.1522 -15.3657 -4.59426 17.5051 18.2916
5765 1 -2.90811 -0.475186 -13.6895 -2.90811 -0.475186 -13.6895
10321 1 -3.61428 -16.0435 -15.6267 -3.61428 -16.0435 18.0305
5159 1 -2.83344 -14.766 -14.0681 -2.83344 18.8913 -14.0681
13322 1 -1.97613 -14.6851 -16.7467 -1.97613 -14.6851 -16.7467
2354 1 -1.06768 -15.7006 -14.3499 -1.06768 -15.7006 19.3074
9383 1 -3.09232 -12.9676 -16.7339 -3.09232 -12.9676 -16.7339
6965 1 -15.7003 -15.658 -14.5271 -15.7003 17.9992 19.1302
3581 1 -12.9962 -13.8144 -15.0059 -12.9962 -13.8144 18.6514
12986 1 -12.2514 -15.6912 -14.4883 -12.2514 17.9661 -14.4883
14882 1 -10.358 -15.1457 -14.5551 23.2992 18.5115 19.1021
14187 1 -10.6533 -14.3283 -13.4361 23.004 19.329 -13.4361
4054 1 -8.78722 -14.4877 -15.3414 -8.78722 -14.4877 18.3159
472 1 -7.96157 -15.6874 -14.4986 -7.96157 -15.6874 -14.4986
5100 1 -6.90203 -15.0309 -15.6448 -6.90203 18.6264 -15.6448
8669 1 -4.0261 -14.9619 -15.0975 -4.0261 -14.9619 -15.0975
8719 1 -2.73197 -14.107 -14.9427 -2.73197 -14.107 -14.9427
2126 1 -1.58041 -15.1991 -15.3879 -1.58041 -15.1991 18.2694
1176 1 -16.0553 -13.7386 -14.467 -16.0553 -13.7386 -14.467
9415 1 -15.8342 -13.2811 -15.4115 17.823 -13.2811 -15.4115
2372 1 -14.9299 -14.6406 -15.0548 -14.9299 -14.6406 18.6024
8786 1 -11.5416 -13.4733 -14.3224 22.1157 -13.4733 -14.3224
7900 1 -12.8817 -13.7999 -13.7348 -12.8817 19.8574 19.9224
15064 1 -10.9842 -14.2656 -15.7937 22.673 -14.2656 17.8636
2488 1 -9.71686 -13.5904 -14.3818 -9.71686 -13.5904 19.2755
7848 1 -8.35025 -13.3949 -14.15 -8.35025 20.2623 19.5072
523 1 -7.0511 -14.4184 -14.5457 -7.0511 -14.4184 -14.5457
13962 1 -6.72913 -13.1144 -14.0268 26.9281 -13.1144 -14.0268
10691 1 -3.9322 -14.367 -14.0237 29.7251 -14.367 19.6335
4720 1 -2.53125 -13.7583 -13.3173 -2.53125 19.899 -13.3173
9859 1 -2.11706 -12.988 -15.0921 -2.11706 -12.988 -15.0921
9630 1 -0.526846 -13.9869 -14.0921 -0.526846 -13.9869 -14.0921
11606 1 -16.2313 -12.1784 -14.7287 17.4259 -12.1784 -14.7287
11856 1 -13.3937 -11.4266 -13.6572 20.2636 -11.4266 20.0001
10488 1 -15.2821 -12.1228 -15.7268 18.3751 21.5345 17.9305
12827 1 -13.2699 -12.3481 -14.6043 -13.2699 21.3092 -14.6043
5296 1 -14.7502 -13.3185 -14.8512 -14.7502 20.3387 -14.8512
10172 1 -12.5355 -12.2187 -13.5952 21.1218 -12.2187 -13.5952
767 1 -12.0888 -12.5272 -14.6948 -12.0888 -12.5272 -14.6948
1331 1 -11.1449 -11.6796 -14.1598 -11.1449 -11.6796 -14.1598
13813 1 -9.15586 -11.7101 -14.7862 24.5014 21.9472 -14.7862
4147 1 -7.37155 -12.9151 -15.1328 -7.37155 20.7421 -15.1328
8173 1 -5.67184 -13.1934 -14.6462 -5.67184 20.4639 19.0111
8036 1 -6.34677 -11.5059 -14.5802 -6.34677 22.1513 19.0771
8860 1 -4.29922 -12.6569 -14.1533 -4.29922 -12.6569 -14.1533
12016 1 -4.41255 -11.4871 -15.174 -4.41255 -11.4871 18.4833
7644 1 -2.76517 -11.8029 -14.4389 -2.76517 21.8544 19.2184
9896 1 -1.30243 -11.813 -15.1306 -1.30243 -11.813 -15.1306
1375 1 -16.5794 -10.3647 -14.4233 -16.5794 -10.3647 -14.4233
12056 1 -15.2556 -9.79602 -14.7294 -15.2556 -9.79602 18.9279
1175 1 -12.5538 -9.86227 -16.1041 -12.5538 -9.86227 -16.1041
8215 1 -12.2071 -10.5903 -15.1947 -12.2071 23.0669 18.4625
5720 1 -10.6806 -11.4701 -15.753 -10.6806 22.1871 -15.753
733 1 -9.97881 -10.469 -14.7452 -9.97881 -10.469 -14.7452
3722 1 -7.49027 -11.4509 -15.2402 -7.49027 -11.4509 18.4171
3074 1 -5.48469 -10.0312 -14.0052 -5.48469 -10.0312 19.652
3551 1 -5.14361 -11.4518 -13.9366 -5.14361 -11.4518 -13.9366
8083 1 -5.4105 -10.1386 -15.427 -5.4105 -10.1386 18.2303
7037 1 -3.16011 -10.2522 -15.0562 -3.16011 23.405 18.6011
6174 1 -1.32554 -10.5767 -15.9714 -1.32554 -10.5767 17.6859
7279 1 -0.884957 -9.86462 -14.0309 -0.884957 -9.86462 -14.0309
9183 1 -0.114929 -11.4564 -13.681 -0.114929 -11.4564 -13.681
8180 1 -0.305321 -10.4287 -16.0893 -0.305321 -10.4287 -16.0893
53 1 -13.9287 -9.21542 -16.0628 -13.9287 -42.8727 -16.0628
5986 1 -12.1797 -9.60255 -14.852 -12.1797 -9.60255 -14.852
808 1 -11.0063 -8.92208 -15.6851 -11.0063 -8.92208 -15.6851
740 1 -11.5544 -8.82369 -13.7438 -11.5544 -8.82369 -13.7438
1536 1 -10.5657 -9.33114 -14.5212 -10.5657 -9.33114 -14.5212
10984 1 -7.47316 -9.99829 -14.6452 26.1841 -9.99829 19.012
9124 1 -8.04366 -9.00593 -14.0327 -8.04366 -9.00593 -14.0327
389 1 -6.23533 -8.6994 -13.1268 -6.23533 -8.6994 -13.1268
4295 1 -5.9521 -8.95352 -16.0245 -5.9521 -8.95352 -16.0245
751 1 -4.82184 -8.96551 -15.0364 -4.82184 -8.96551 -15.0364
8415 1 -2.02987 -8.91454 -15.4152 -2.02987 -8.91454 -15.4152
616 1 -0.812017 -9.26032 -15.872 -0.812017 -9.26032 -15.872
10904 1 -4.86776 -10.0947 -0.10188 -4.86776 -10.0947 -0.10188
382 1 -8.09856 -16.6681 -4.96364 -8.09856 -16.6681 -4.96364
8824 1 -9.00433 -0.46521 -15.0612 -9.00433 -0.46521 -15.0612
8831 1 -15.4796 -8.77006 -14.4938 18.1777 -8.77006 -14.4938
3528 1 -12.868 -8.80542 -13.8989 -12.868 -8.80542 -13.8989
12045 1 -12.3727 -8.02962 -15.0935 21.2846 -8.02962 18.5638
2261 1 -8.89429 -8.53591 -15.0611 -8.89429 -8.53591 18.5962
11538 1 -8.00253 -7.17274 -14.5357 25.6547 -7.17274 19.1216
1843 1 -7.09695 -7.83701 -14.3279 -7.09695 -7.83701 -14.3279
12283 1 -5.94163 -8.24846 -14.3634 -5.94163 -8.24846 19.2939
5386 1 -2.79002 -6.00258 -16.4268 -2.79002 27.6547 -16.4268
11584 1 -4.15098 -8.3584 -15.5734 -4.15098 -8.3584 18.0838
5261 1 -1.56251 -8.39692 -14.3656 -1.56251 -8.39692 -14.3656
13260 1 -16.1454 -5.65196 -14.2015 17.5119 28.0053 -14.2015
8057 1 -14.9297 -6.98844 -13.9551 -14.9297 -6.98844 -13.9551
4711 1 -15.7197 -4.67976 -14.4932 -15.7197 28.9775 -14.4932
6334 1 -12.9729 -6.70396 -14.5423 -12.9729 -6.70396 19.1149
8524 1 -11.972 -5.71178 -14.4739 21.6853 -5.71178 -14.4739
3405 1 -10.0178 -6.74795 -14.5481 -10.0178 -6.74795 19.1091
480 1 -10.7866 -8.3378 -14.5553 -10.7866 -8.3378 -14.5553
741 1 -9.69552 -6.01419 -13.3037 -9.69552 -6.01419 -13.3037
12350 1 -7.26821 -5.88829 -14.0523 -7.26821 27.769 -14.0523
9102 1 -7.09507 -6.18905 -15.4641 -7.09507 -6.18905 -15.4641
7366 1 -5.99029 -7.06052 -14.6693 -5.99029 -7.06052 18.9879
3004 1 -4.16005 -7.25744 -14.322 -4.16005 -7.25744 19.3353
11381 1 -4.38919 -6.46752 -15.5755 29.2681 -6.46752 18.0817
1578 1 -3.85 -5.60145 -12.542 -3.85 -5.60145 -12.542
5563 1 -3.56395 -5.95224 -13.9863 -3.56395 -5.95224 -13.9863
13080 1 -0.762047 -6.13398 -14.124 -0.762047 27.5233 -14.124
2250 1 -1.25336 -6.96588 -14.778 -1.25336 -6.96588 18.8793
13987 1 -16.3295 -3.57252 -14.7535 17.3277 -3.57252 -14.7535
10069 1 -14.0136 -5.31438 -14.6499 19.6437 -5.31438 -14.6499
3070 1 -11.9672 -4.62593 -15.1836 -11.9672 -4.62593 18.4737
3363 1 -10.5586 -4.92756 -13.5315 -10.5586 -4.92756 20.1258
1975 1 -9.67559 -4.95016 -14.2328 -9.67559 -4.95016 -14.2328
1866 1 -8.29868 -4.41121 -13.9343 -8.29868 -4.41121 -13.9343
14616 1 -5.80123 -5.12738 -14.6038 -5.80123 -5.12738 19.0534
15509 1 -3.15571 -4.79795 -14.7631 -3.15571 -4.79795 18.8941
8505 1 -3.4859 -5.91113 -15.3351 -3.4859 -5.91113 -15.3351
11978 1 -1.89788 -4.57568 -15.5336 -1.89788 -4.57568 18.1237
12615 1 -0.184443 -4.02219 -14.9662 -0.184443 29.6351 -14.9662
12218 1 -8.42874 -4.83491 -16.1802 -8.42874 -4.83491 17.477
4346 1 -14.8934 -3.29846 -13.8685 -14.8934 -3.29846 -13.8685
1894 1 -14.0945 -2.95878 -14.7024 -14.0945 -2.95878 -14.7024
323 1 -15.4402 -4.48589 -15.5263 -15.4402 -4.48589 -15.5263
4789 1 -12.6748 -3.31786 -14.8639 -12.6748 -3.31786 -14.8639
15950 1 -14.5191 -4.16921 -14.9914 19.1381 -4.16921 18.6659
914 1 -11.2555 -3.65853 -15.2699 -11.2555 -3.65853 -15.2699
8616 1 -10.9543 -5.59359 -15.035 -10.9543 -5.59359 -15.035
11676 1 -9.21216 -3.41858 -14.2172 24.4451 -3.41858 19.4401
4321 1 -6.30073 -4.21032 -15.5946 -6.30073 -4.21032 -15.5946
2505 1 -7.44135 -2.53406 -13.9217 -7.44135 -2.53406 19.7355
3263 1 -6.25184 -3.35954 -14.3998 -6.25184 -3.35954 19.2574
621 1 -5.68018 -4.09768 -14.8144 -5.68018 -4.09768 -14.8144
13563 1 -2.6267 -3.41421 -15.1069 -2.6267 -3.41421 -15.1069
7275 1 -1.08523 -3.38634 -15.455 -1.08523 30.2709 18.2023
9058 1 -4.5187 -7.66975 -16.7798 29.1386 -7.66975 -16.7798
9133 1 -12.6293 -2.29408 -14.9768 21.028 -2.29408 -14.9768
6303 1 -11.4383 -1.96991 -15.3354 -11.4383 -1.96991 18.3218
15923 1 -10.1562 -2.79027 -15.2794 23.5011 -2.79027 18.3779
9756 1 -8.20085 -1.59427 -15.1458 25.4564 -35.2515 -15.1458
9303 1 -8.46503 -1.49236 -13.8818 25.1922 -1.49236 -13.8818
4345 1 -7.1151 -1.65427 -15.5591 -7.1151 -1.65427 -15.5591
696 1 -6.15698 -2.19407 -14.9784 -6.15698 -2.19407 -14.9784
6646 1 -5.20915 -1.69882 -14.8339 -5.20915 -1.69882 18.8233
16068 1 -4.60746 -2.7602 -14.4072 29.0498 -2.7602 -14.4072
14637 1 -4.08506 -1.22471 -14.4965 -4.08506 -1.22471 -14.4965
4522 1 -3.94896 -2.0958 -15.8844 -3.94896 -2.0958 -15.8844
12800 1 -0.387255 -2.35381 -15.1112 -0.387255 -2.35381 -15.1112
8716 1 -1.64448 -1.93347 -14.9137 -1.64448 -1.93347 -14.9137
5094 1 -15.7081 -2.71984 -14.4582 -15.7081 -2.71984 -14.4582
4082 1 -15.2119 -0.330537 -15.2267 -15.2119 -0.330537 -15.2267
4349 1 -12.6975 -1.17721 -15.5912 -12.6975 -1.17721 -15.5912
9266 1 -12.6913 -1.20379 -13.3446 20.9659 -1.20379 -13.3446
1023 1 -13.1334 -0.388896 -15.1324 -13.1334 -0.388896 -15.1324
12728 1 -12.3518 -3.37734 -0.728997 21.3055 -3.37734 -0.728997
5666 1 -10.7867 -0.962694 -14.433 -10.7867 -0.962694 -14.433
13678 1 -11.8922 -0.949599 -14.2217 -11.8922 -0.949599 -14.2217
12912 1 -9.79744 -0.638185 -14.0487 23.8598 -0.638185 19.6086
5740 1 -9.87166 -1.56139 -14.9925 -9.87166 -1.56139 -14.9925
1882 1 -6.34502 -1.63988 -13.8502 -6.34502 -1.63988 -13.8502
6257 1 -16.0823 -2.9973 -9.63316 -16.0823 -2.9973 24.0241
6851 1 -5.88341 -0.747333 -14.5166 -5.88341 -0.747333 19.1407
86 1 -4.5636 -1.54342 -12.2341 -4.5636 -1.54342 -12.2341
5528 1 -4.10514 -1.0147 -15.8787 -4.10514 -1.0147 -15.8787
12683 1 -16.4184 -16.4134 -3.57053 17.2389 17.2439 -3.57053
7424 1 -1.85492 -0.739471 -14.275 -1.85492 32.9178 19.3822
1965 1 -16.1182 -4.22343 -16.4725 -16.1182 -4.22343 -16.4725
8361 1 -0.192653 -0.234534 -14.0484 -0.192653 -33.8918 -14.0484
3589 1 -2.68664 -12.2777 -0.622509 -2.68664 -12.2777 -0.622509
1810 1 -15.8118 -15.3191 -12.3075 -15.8118 -15.3191 -12.3075
14456 1 -15.461 -12.461 -0.927998 18.1962 21.1963 -0.927998
1290 1 -12.2338 -14.7148 -13.52 -12.2338 -14.7148 -13.52
10721 1 -10.2247 -16.2766 -11.9912 23.4325 -16.2766 -11.9912
11325 1 -10.1318 -15.2678 -13.2856 23.5255 -15.2678 20.3717
462 1 -8.45045 -16.1835 -13.4279 -8.45045 -16.1835 -13.4279
5916 1 -5.63666 -15.4094 -13.3914 -5.63666 18.2479 -13.3914
1968 1 -6.52825 -16.4579 -14.4103 -6.52825 -16.4579 -14.4103
934 1 -7.21436 -15.563 -13.5136 -7.21436 -15.563 -13.5136
1064 1 -16.748 -14.6057 -3.36371 -16.748 -14.6057 -3.36371
3571 1 -16.7733 -12.3656 -5.51395 -16.7733 -12.3656 -5.51395
8261 1 -1.99176 -16.0361 -12.4107 31.6655 -16.0361 -12.4107
3335 1 -0.627648 -15.2646 -13.2185 -0.627648 -15.2646 -13.2185
7879 1 -16.7194 -8.54267 -5.80913 -16.7194 -8.54267 -5.80913
761 1 -14.2132 -14.9741 -13.7179 -14.2132 -14.9741 -13.7179
1924 1 -14.0689 -13.9602 -14.0683 -14.0689 -13.9602 -14.0683
1740 1 -13.3236 -13.3688 -12.6193 20.3336 -13.3688 -12.6193
14445 1 -10.9736 -15.468 -12.023 22.6836 18.1893 21.6343
4124 1 -9.73597 -14.6172 -12.5123 -9.73597 19.04 -12.5123
9845 1 -8.66614 -13.6917 -13.1261 24.9911 -13.6917 -13.1261
3110 1 -9.3072 -15.7004 -12.6334 -9.3072 -15.7004 21.0238
6369 1 -9.38197 -14.7572 -13.8828 -9.38197 18.9 19.7745
5217 1 -6.45183 -14.8422 -13.6867 -6.45183 18.815 -13.6867
589 1 -5.32455 -14.5363 -13.0211 -5.32455 -14.5363 -13.0211
5700 1 -4.1554 -15.3516 -13.5576 -4.1554 18.3057 -13.5576
12351 1 -1.84204 -14.8867 -14.1327 31.8152 18.7705 -14.1327
3482 1 -1.60464 -14.907 -12.5391 -1.60464 18.7503 21.1181
13927 1 -9.86815 -6.82343 -0.238755 23.7891 -6.82343 -0.238755
11146 1 -15.2851 -14.8663 -13.0693 18.3722 -14.8663 20.588
2399 1 -15.373 -12.8187 -13.4439 -15.373 -12.8187 20.2134
15396 1 -14.1272 -12.7638 -13.3893 19.53 20.8934 20.268
13957 1 -11.5551 -12.6802 -13.5746 22.1021 20.9771 -13.5746
8850 1 -10.4092 -13.3439 -13.2586 23.248 -13.3439 -13.2586
1435 1 -9.02798 -12.094 -13.8137 -9.02798 -12.094 -13.8137
336 1 -7.9386 -14.4845 -13.7218 -7.9386 -14.4845 -13.7218
1429 1 -3.15865 -13.9841 -12.2964 -3.15865 -13.9841 -12.2964
9433 1 -3.32399 -13.0445 -14.5278 -3.32399 -13.0445 -14.5278
9890 1 -2.4239 -12.6147 -13.1874 -2.4239 -12.6147 -13.1874
14581 1 -0.315404 -14.0698 -12.872 -0.315404 19.5875 -12.872
9475 1 -5.48167 -16.6431 -15.6526 -5.48167 -16.6431 -15.6526
14266 1 -16.0022 -11.2801 -13.6466 17.6551 22.3772 -13.6466
10492 1 -11.5432 -11.3511 -12.8293 22.1141 -11.3511 20.828
6711 1 -8.65791 -12.5509 -12.7615 -8.65791 21.1064 20.8958
1461 1 -7.57797 -12.1598 -13.6509 -7.57797 -12.1598 -13.6509
5290 1 -5.79266 -11.541 -12.9205 -5.79266 -11.541 -12.9205
951 1 -5.37907 -12.8448 -13.2134 -5.37907 -12.8448 -13.2134
15864 1 -5.23732 -10.8251 -12.2548 -5.23732 22.8322 21.4025
5990 1 -4.15684 -11.6504 -12.9066 -4.15684 -11.6504 -12.9066
7430 1 -2.81148 -10.9127 -13.7434 -2.81148 -10.9127 19.9138
4680 1 -1.40705 -12.5789 -14.0945 -1.40705 21.0784 -14.0945
7931 1 -15.6883 -9.55333 -13.5322 -15.6883 24.1039 20.1251
849 1 -14.0828 -10.3058 -13.314 -14.0828 -10.3058 -13.314
6302 1 -12.6677 -10.4641 -13.8778 -12.6677 23.1932 -13.8778
12935 1 -13.2327 -12.2421 -12.3838 20.4246 -12.2421 -12.3838
4852 1 -11.8119 -10.1698 -13.1382 -11.8119 23.4875 -13.1382
5923 1 -10.3308 -11.9395 -13.2559 -10.3308 -11.9395 -13.2559
14478 1 -11.3726 -10.6248 -14.4807 22.2847 23.0324 -14.4807
11712 1 -8.48774 -10.8422 -13.8823 25.1695 -10.8422 19.7749
3061 1 -9.05173 -9.22505 -13.6334 -9.05173 -9.22505 20.0238
6380 1 -6.81667 -10.8627 -12.9445 -6.81667 -10.8627 -12.9445
3618 1 -5.73632 -9.79211 -13.0223 -5.73632 -9.79211 20.635
6994 1 -4.6119 -10.4328 -13.699 -4.6119 -10.4328 19.9582
13517 1 -3.39293 -9.46312 -14.1301 -3.39293 24.1941 -14.1301
4581 1 -2.25303 -9.67354 -13.1281 -2.25303 -9.67354 -13.1281
3298 1 -1.85157 -10.7876 -14.353 -1.85157 -10.7876 19.3043
4796 1 -1.4249 -10.4686 -13.2472 -1.4249 -10.4686 -13.2472
15631 1 -16.8362 -9.03677 -13.4473 16.821 24.6205 20.21
8697 1 -14.7888 -9.11767 -12.8503 18.8685 -9.11767 -12.8503
10043 1 -14.0943 -9.14572 -14.0899 19.563 -9.14572 -14.0899
9577 1 -13.6923 -9.1767 -12.4697 19.9649 -9.1767 -12.4697
12587 1 -12.8787 -9.67582 -13.0407 20.7785 -9.67582 -13.0407
1687 1 -7.33649 -9.70308 -13.3165 -7.33649 -9.70308 -13.3165
1895 1 -4.83714 -7.53726 -13.5152 -4.83714 -7.53726 -13.5152
7070 1 -3.40069 -8.19628 -14.361 -3.40069 -8.19628 19.2963
12340 1 -1.16811 -8.28222 -12.93 -1.16811 -8.28222 20.7272
995 1 -2.23461 -9.25092 -14.0902 -2.23461 -9.25092 -14.0902
11013 1 -14.356 -2.35759 -16.5691 19.3013 -2.35759 17.0881
13836 1 -6.21959 -6.7561 -16.7922 27.4377 -6.7561 -16.7922
15275 1 -13.8518 -6.40537 -13.6867 19.8055 -6.40537 19.9706
11708 1 -13.6811 -7.50304 -13.0213 -13.6811 -7.50304 20.6359
12226 1 -12.3726 -7.69376 -13.8491 -12.3726 -7.69376 19.8081
192 1 -12.1185 -7.93578 -12.7085 -12.1185 -7.93578 -12.7085
10003 1 -10.7211 -6.81559 -13.0792 22.9361 -6.81559 -13.0792
5423 1 -10.1875 -8.63125 -13.6106 -10.1875 -8.63125 -13.6106
12169 1 -9.3896 -7.37687 -13.5882 -9.3896 -7.37687 -13.5882
11445 1 -8.05661 -6.82114 -13.3547 25.6006 -6.82114 20.3026
310 1 -6.12132 -7.65914 -12.5659 -6.12132 -7.65914 -12.5659
5155 1 -7.1261 -8.04212 -13.065 -7.1261 25.6151 -13.065
2324 1 -2.47894 -7.0154 -14.5863 -2.47894 -7.0154 19.071
797 1 -2.03278 -7.79792 -13.455 -2.03278 -7.79792 -13.455
11182 1 -0.261402 -6.91393 -13.1754 -0.261402 -6.91393 20.4819
9927 1 -16.3634 -5.28116 -12.6144 17.2939 -5.28116 -12.6144
2361 1 -15.4438 -7.80082 -13.368 -15.4438 -7.80082 20.2893
12159 1 -12.648 -6.85863 -12.731 -12.648 -6.85863 20.9262
5279 1 -14.1019 -5.10423 -13.4597 -14.1019 -5.10423 -13.4597
2398 1 -11.4711 -6.21082 -13.7171 -11.4711 -6.21082 19.9401
793 1 -9.98261 -6.43031 -11.8903 -9.98261 -6.43031 -11.8903
205 1 -8.90843 -5.98213 -14.3235 -8.90843 -5.98213 -14.3235
2736 1 -7.91384 -5.28224 -13.2112 -7.91384 -5.28224 20.446
618 1 -7.45004 -6.08571 -11.6092 26.2072 -6.08571 -11.6092
13632 1 -5.33037 -6.75453 -12.4053 -5.33037 -6.75453 -12.4053
9950 1 -3.75846 -6.79939 -11.9553 -3.75846 -6.79939 -11.9553
13477 1 -2.19662 -6.5139 -13.6509 -2.19662 27.1434 -13.6509
37 1 -9.32209 -0.649862 -3.71005 -9.32209 -0.649862 -3.71005
3974 1 -16.1387 -3.63972 -11.8317 -16.1387 -3.63972 21.8256
5522 1 -12.9034 -5.4918 -14.1106 -12.9034 -5.4918 -14.1106
7056 1 -13.6823 -3.66241 -11.8361 -13.6823 -3.66241 21.8211
3763 1 -11.0846 -5.62886 -11.8543 -11.0846 -5.62886 21.803
2264 1 -8.72879 -4.63471 -12.7631 -8.72879 -4.63471 20.8942
22 1 -7.51512 -3.46294 -13.3651 -7.51512 -3.46294 -13.3651
10259 1 -6.25882 -6.30569 -13.5053 -6.25882 -6.30569 -13.5053
570 1 -6.84859 -4.59187 -12.9493 -6.84859 -4.59187 -12.9493
1590 1 -5.39752 -5.60914 -13.4645 -5.39752 -5.60914 -13.4645
2117 1 -4.24809 -4.29766 -14.3742 -4.24809 -4.29766 -14.3742
1702 1 -1.45934 -4.86182 -14.0329 -1.45934 -4.86182 -14.0329
10824 1 -2.81707 -5.80106 -13.1204 -2.81707 -5.80106 20.5368
10014 1 -1.26023 -6.36566 -12.4946 -1.26023 -6.36566 -12.4946
13423 1 -16.4503 -3.12458 -13.2403 17.207 -3.12458 -13.2403
4176 1 -15.1609 -4.59913 -13.2417 -15.1609 -4.59913 -13.2417
9339 1 -13.063 -4.13433 -14.4198 20.5943 -4.13433 -14.4198
10037 1 -11.6135 -4.64899 -13.417 -11.6135 -4.64899 -13.417
8744 1 -11.7436 -3.6391 -13.8685 21.9137 -3.6391 -13.8685
6 1 -10.0679 -3.75369 -13.4437 -10.0679 -3.75369 -13.4437
7732 1 -9.09546 -4.09403 -11.9396 -9.09546 -4.09403 21.7176
4205 1 -7.15629 -4.50718 -14.5592 -7.15629 29.1501 -14.5592
1408 1 -5.27622 -3.90944 -13.2286 -5.27622 -3.90944 -13.2286
11792 1 -2.98841 -2.81335 -13.197 -2.98841 -2.81335 20.4602
4691 1 -3.40174 -2.63748 -14.6576 -3.40174 -2.63748 -14.6576
3130 1 -4.55069 -5.38714 -15.3347 -4.55069 -5.38714 18.3225
287 1 -0.783069 -3.96231 -13.5999 -0.783069 29.6949 -13.5999
9673 1 -2.99264 -4.0903 -13.5397 -2.99264 -4.0903 -13.5397
13677 1 -0.0332286 -2.40449 -14.0061 -0.0332286 31.2528 -14.0061
1335 1 -7.63438 -0.423914 -13.1067 -7.63438 -0.423914 -13.1067
13844 1 -16.6598 -1.95873 -12.3553 16.9975 -1.95873 -12.3553
12427 1 -15.0215 -2.46057 -13.3215 18.6358 -2.46057 -13.3215
392 1 -13.0769 -2.49509 -13.9885 -13.0769 -2.49509 -13.9885
2576 1 -11.9278 -1.16621 -12.6094 -11.9278 -1.16621 21.0479
5178 1 -11.7607 -2.26357 -13.5683 -11.7607 -2.26357 -13.5683
1763 1 -10.2769 -2.6003 -13.6908 -10.2769 -2.6003 -13.6908
1032 1 -8.87922 -2.64646 -13.1512 -8.87922 -2.64646 -13.1512
11563 1 -7.47819 -1.48637 -13.3093 -7.47819 -1.48637 20.3479
324 1 -5.39689 -2.11399 -13.6742 -5.39689 -2.11399 -13.6742
2589 1 -4.10516 -2.41459 -13.0826 -4.10516 -2.41459 20.5746
9111 1 -2.00952 -3.41444 -13.7254 -2.00952 -3.41444 -13.7254
5834 1 -1.2607 -1.29709 -13.1802 -1.2607 -1.29709 -13.1802
13956 1 -15.9771 -1.19324 -13.9249 17.6802 -1.19324 -13.9249
12386 1 -14.1035 -1.15839 -14.5779 19.5538 -1.15839 -14.5779
4856 1 -16.7249 -5.91193 -8.65178 -16.7249 -5.91193 -8.65178
11310 1 -0.255946 -4.24963 -16.4545 -0.255946 -37.9069 17.2028
5564 1 -10.3056 -2.02767 -12.4227 -10.3056 -2.02767 -12.4227
13955 1 -16.4772 -14.8278 -13.3034 17.18 18.8295 -13.3034
4025 1 -9.5301 -1.55304 -13.2278 -9.5301 -1.55304 20.4294